 *******************************************************************************
 ** Site#: 32691        For non-commercial use only    Version 19.179W 32BITS **
 *******************************************************************************
 ** Cite this program as: MOPAC2016, Version: 19.179W, James J. P. Stewart,   **
 ** Stewart Computational Chemistry, web: HTTP://OpenMOPAC.net. Days left: 243**
 *******************************************************************************
 **                                                                           **
 **                                MOPAC2016                                  **
 **                                                                           **
 *******************************************************************************

                              PM7 CALCULATION RESULTS

 *******************************************************************************
 *  CALCULATION DONE:                                Mon Oct 28 10:37:07 2019  *
 *  T=         - A TIME OF 172800.0 SECONDS REQUESTED
 *  DUMP=N     - RESTART FILE WRITTEN EVERY  7200.000 SECONDS
 *******************************************************************************

 2,3,4-trimethoxybenzaldehyde2.mop

  ATOM    CHEMICAL      BOND LENGTH      BOND ANGLE     TWIST ANGLE 
 NUMBER    SYMBOL       (ANGSTROMS)      (DEGREES)       (DEGREES) 
   (I)                     NA:I           NB:NA:I       NC:NB:NA:I       NA    NB    NC 
     1       C          0.00000000       0.0000000       0.0000000        0     0     0
     2       C          1.33757900  *    0.0000000       0.0000000        1     0     0
     3       C          1.34491400  *  121.8874240  *    0.0000000        2     1     0
     4       C          1.35579300  *  117.5828960  *    0.8274470  *     3     2     1
     5       C          1.35850200  *  121.2199460  *   -0.0369900  *     4     3     2
     6       C          1.34254100  *  120.4637160  *    0.4323220  *     1     2     3
     7       C          1.36436200  *  118.8760480  *  178.0903290  *     6     1     2
     8       O          1.21210600  *  125.8900690  *   -0.1494290  *     7     6     1
     9       O          1.37790500  *  119.1832150  * -175.6987110  *     5     4     3
    10       C          1.41060400  *  114.4679960  *  -88.4034930  *     9     5     4
    11       O          1.37950700  *  120.3849440  * -177.5960190  *     4     3     2
    12       C          1.41174900  *  116.3033960  *  -65.2894970  *    11     4     3
    13       O          1.37575700  *  123.2154910  * -177.0436480  *     3     2     1
    14       C          1.40864000  *  119.5353000  *   10.1669330  *    13     3     2
    15       H          1.10309000  *  117.3117410  *  178.9578190  *     1     2     3
    16       H          1.10141600  *  116.7453320  * -178.4450020  *     2     1     6
    17       H          1.11364100  *  117.0128760  *  179.6806330  *     7     6     1
    18       H          1.11281500  *  108.0983610  * -177.0888300  *    10     9     5
    19       H          1.11274300  *  110.1863510  *  -57.9234440  *    10     9     5
    20       H          1.11120000  *  110.5256050  *   63.8796300  *    10     9     5
    21       H          1.11312400  *  107.9001800  * -160.9845910  *    12    11     4
    22       H          1.11250400  *  110.4593940  *  -42.0089390  *    12    11     4
    23       H          1.11025500  *  111.2187500  *   81.1974030  *    12    11     4
    24       H          1.11322200  *  107.6752660  *  175.0434760  *    14    13     3
    25       H          1.11266400  *  110.5191420  *  -67.4474270  *    14    13     3
    26       H          1.11289400  *  110.3582540  *   57.0940700  *    14    13     3
 


          CARTESIAN COORDINATES 

    NO.       ATOM           X           Y           Z

     1         C          0.0000      0.0000      0.0000
     2         C          1.3376      0.0000      0.0000
     3         C          2.0480      1.1419      0.0000
     4         C          1.3594      2.3097      0.0174
     5         C          0.0011      2.3260      0.0334
     6         C         -0.6807      1.1572     -0.0087
     7         C         -2.0439      1.1194     -0.0483
     8         O         -2.7264      0.1182     -0.0798
     9         O         -0.6572      3.5343     -0.0395
    10         C         -0.8888      4.1497      1.2084
    11         O          2.0285      3.5151     -0.0316
    12         C          2.8495      3.8203      1.0756
    13         O          3.4221      1.1746     -0.0594
    14         C          4.1334     -0.0085     -0.3395
    15         H         -0.5061     -0.9800     -0.0178
    16         H          1.8332     -0.9834     -0.0193
    17         H         -2.5772      2.0971     -0.0489
    18         H         -1.4683      5.0831      1.0314
    19         H         -1.4789      3.4736      1.8664
    20         H          0.0736      4.4121      1.6980
    21         H          3.0356      4.9177      1.0714
    22         H          2.3400      3.5442      2.0253
    23         H          3.8336      3.3122      0.9983
    24         H          5.2105      0.2580     -0.4296
    25         H          4.0312     -0.7328      0.4990
    26         H          3.7991     -0.4409     -1.3089

 General Reference for PM7:
 "Optimization of Parameters for Semiempirical Methods VI: More Modifications to the 
 NDDO Approximations and Re-optimization of Parameters", J. J. P. Stewart, J. Mol. Mod., 1:32, 19 (2013)
 http://www.springerlink.com/openurl.asp?genre=article&id=doi:10.1007/s00894-012-1667-x

           Empirical Formula: C10 H12 O4  =    26 atoms



      MOLECULAR POINT GROUP   :   C1  


      RHF CALCULATION, NO. OF DOUBLY OCCUPIED LEVELS = 38


          Geometry optimization using EF

          DIAGONAL MATRIX USED AS START HESSIAN

 CYCLE:     1 TIME:   0.062 TIME LEFT:  2.00D  GRAD.:   492.877 HEAT: -90.07402
 CYCLE:     2 TIME:   0.109 TIME LEFT:  2.00D  GRAD.:   393.025 HEAT: -94.37202
 CYCLE:     3 TIME:   0.031 TIME LEFT:  2.00D  GRAD.:   177.603 HEAT: -106.2095
 CYCLE:     4 TIME:   0.016 TIME LEFT:  2.00D  GRAD.:    99.534 HEAT: -113.1894
 CYCLE:     5 TIME:   0.016 TIME LEFT:  2.00D  GRAD.:   118.343 HEAT: -113.2205
 CYCLE:     6 TIME:   0.016 TIME LEFT:  2.00D  GRAD.:    61.681 HEAT: -116.0281
 CYCLE:     7 TIME:   0.031 TIME LEFT:  2.00D  GRAD.:    76.572 HEAT: -116.2096
 CYCLE:     8 TIME:   0.031 TIME LEFT:  2.00D  GRAD.:    69.796 HEAT: -116.5029
 CYCLE:     9 TIME:   0.016 TIME LEFT:  2.00D  GRAD.:    56.315 HEAT: -116.8608
 CYCLE:    10 TIME:   0.016 TIME LEFT:  2.00D  GRAD.:    10.869 HEAT: -117.0798
 CYCLE:    11 TIME:   0.016 TIME LEFT:  2.00D  GRAD.:    23.048 HEAT: -117.2845
 CYCLE:    12 TIME:   0.031 TIME LEFT:  2.00D  GRAD.:    34.676 HEAT: -117.5837
 CYCLE:    13 TIME:   0.016 TIME LEFT:  2.00D  GRAD.:    38.434 HEAT: -118.0306
 CYCLE:    14 TIME:   0.016 TIME LEFT:  2.00D  GRAD.:    24.784 HEAT: -118.6481
 CYCLE:    15 TIME:   0.016 TIME LEFT:  2.00D  GRAD.:    18.467 HEAT: -119.1093
 CYCLE:    16 TIME:   0.016 TIME LEFT:  2.00D  GRAD.:    21.980 HEAT: -119.5707
 CYCLE:    17 TIME:   0.016 TIME LEFT:  2.00D  GRAD.:    13.662 HEAT: -119.9925
 CYCLE:    18 TIME:   0.031 TIME LEFT:  2.00D  GRAD.:    18.450 HEAT: -120.1373
 CYCLE:    19 TIME:   0.000 TIME LEFT:  2.00D  GRAD.:    15.076 HEAT: -120.3398
 CYCLE:    20 TIME:   0.020 TIME LEFT:  2.00D  GRAD.:     3.799 HEAT: -120.3924
 CYCLE:    21 TIME:   0.051 TIME LEFT:  2.00D  GRAD.:     6.688 HEAT: -120.4458
 CYCLE:    22 TIME:   0.031 TIME LEFT:  2.00D  GRAD.:     7.490 HEAT: -120.4711
 CYCLE:    23 TIME:   0.016 TIME LEFT:  2.00D  GRAD.:     6.015 HEAT: -120.5122
 CYCLE:    24 TIME:   0.016 TIME LEFT:  2.00D  GRAD.:     4.761 HEAT: -120.5454
 CYCLE:    25 TIME:   0.016 TIME LEFT:  2.00D  GRAD.:     8.971 HEAT: -120.5930
 CYCLE:    26 TIME:   0.031 TIME LEFT:  2.00D  GRAD.:    11.903 HEAT: -120.6571
 CYCLE:    27 TIME:   0.016 TIME LEFT:  2.00D  GRAD.:     7.476 HEAT: -120.7186
 CYCLE:    28 TIME:   0.031 TIME LEFT:  2.00D  GRAD.:    13.700 HEAT: -120.7474
 CYCLE:    29 TIME:   0.016 TIME LEFT:  2.00D  GRAD.:     3.983 HEAT: -120.7724
 CYCLE:    30 TIME:   0.031 TIME LEFT:  2.00D  GRAD.:     1.328 HEAT: -120.7798
 CYCLE:    31 TIME:   0.016 TIME LEFT:  2.00D  GRAD.:     2.940 HEAT: -120.7871
 CYCLE:    32 TIME:   0.016 TIME LEFT:  2.00D  GRAD.:     3.855 HEAT: -120.8019
 CYCLE:    33 TIME:   0.031 TIME LEFT:  2.00D  GRAD.:     1.211 HEAT: -120.8106
 CYCLE:    34 TIME:   0.078 TIME LEFT:  2.00D  GRAD.:    12.350 HEAT: -120.8143
 CYCLE:    35 TIME:   0.016 TIME LEFT:  2.00D  GRAD.:     4.840 HEAT: -120.8221
 CYCLE:    36 TIME:   0.016 TIME LEFT:  2.00D  GRAD.:     3.302 HEAT: -120.8192
 CYCLE:    37 TIME:   0.016 TIME LEFT:  2.00D  GRAD.:     2.353 HEAT: -120.8286
 CYCLE:    38 TIME:   0.031 TIME LEFT:  2.00D  GRAD.:     5.774 HEAT: -120.8297
 CYCLE:    39 TIME:   0.016 TIME LEFT:  2.00D  GRAD.:     1.400 HEAT: -120.8359
 CYCLE:    40 TIME:   0.016 TIME LEFT:  2.00D  GRAD.:     5.627 HEAT: -120.8283
 CYCLE:    41 TIME:   0.016 TIME LEFT:  2.00D  GRAD.:     1.185 HEAT: -120.8424
 CYCLE:    42 TIME:   0.031 TIME LEFT:  2.00D  GRAD.:     2.125 HEAT: -120.8494
 CYCLE:    43 TIME:   0.016 TIME LEFT:  2.00D  GRAD.:     1.597 HEAT: -120.8552
 CYCLE:    44 TIME:   0.016 TIME LEFT:  2.00D  GRAD.:     2.659 HEAT: -120.8763
 CYCLE:    45 TIME:   0.016 TIME LEFT:  2.00D  GRAD.:     3.337 HEAT: -120.8826
 CYCLE:    46 TIME:   0.031 TIME LEFT:  2.00D  GRAD.:     8.872 HEAT: -120.8891
 CYCLE:    47 TIME:   0.016 TIME LEFT:  2.00D  GRAD.:     1.717 HEAT: -120.8936
 CYCLE:    48 TIME:   0.016 TIME LEFT:  2.00D  GRAD.:     3.872 HEAT: -120.9065
 CYCLE:    49 TIME:   0.016 TIME LEFT:  2.00D  GRAD.:     3.679 HEAT: -120.9094
 CYCLE:    50 TIME:   0.031 TIME LEFT:  2.00D  GRAD.:     0.803 HEAT: -120.9139

     GRADIENT =  0.80260 IS LESS THAN CUTOFF =  1.00000



 -------------------------------------------------------------------------------

 2,3,4-trimethoxybenzaldehyde2.mop



     GEOMETRY OPTIMISED USING EIGENVECTOR FOLLOWING (EF).     
     SCF FIELD WAS ACHIEVED                                   


                              PM7 CALCULATION
                                                       MOPAC2016 (Version: 19.179W)
                                                       Mon Oct 28 10:37:08 2019
                                                       No. of days remaining = 243




          FINAL HEAT OF FORMATION =       -120.91399 KCAL/MOL =    -505.90413 KJ/MOL


          TOTAL ENERGY            =      -2570.06067 EV
          ELECTRONIC ENERGY       =     -14611.89379 EV  POINT GROUP:     C1  
          CORE-CORE REPULSION     =      12041.83312 EV
          COSMO AREA              =        220.05 SQUARE ANGSTROMS
          COSMO VOLUME            =        230.02 CUBIC ANGSTROMS

          GRADIENT NORM           =          0.80260 = 0.15740 PER ATOM
          IONIZATION POTENTIAL    =          9.159849 EV
          HOMO LUMO ENERGIES (EV) =         -9.160 -0.386
          NO. OF FILLED LEVELS    =         38
          MOLECULAR WEIGHT        =        196.2024

          MOLECULAR DIMENSIONS (Angstroms)

            Atom       Atom       Distance
            H    24    H    17     8.10307
            H    21    H    15     6.59154
            H    20    H    22     3.08382


          SCF CALCULATIONS        =         57
 
          WALL-CLOCK TIME         =          1.273 SECONDS
          COMPUTATION TIME        =          2.340 SECONDS




  ATOM    CHEMICAL      BOND LENGTH      BOND ANGLE     TWIST ANGLE 
 NUMBER    SYMBOL       (ANGSTROMS)      (DEGREES)       (DEGREES) 
   (I)                     NA:I           NB:NA:I       NC:NB:NA:I       NA    NB    NC 
     1       C          0.00000000       0.0000000       0.0000000        0     0     0
     2       C          1.38982056  *    0.0000000       0.0000000        1     0     0
     3       C          1.39764515  *  119.0309602  *    0.0000000        2     1     0
     4       C          1.41028949  *  121.0587042  *    0.2257414  *     3     2     1
     5       C          1.39910410  *  119.0132257  *   -0.8394451  *     4     3     2
     6       C          1.39430097  *  121.3102660  *    0.2946151  *     1     2     3
     7       C          1.47009437  *  119.6779006  *  179.6826002  *     6     1     2
     8       O          1.21051553  *  121.5668119  *    1.2279806  *     7     6     1
     9       O          1.34792677  *  126.9607838  * -178.9207334  *     5     4     3
    10       C          1.42362699  *  118.9788655  *    5.2934972  *     9     5     4
    11       O          1.36999396  *  121.3029778  * -174.9744066  *     4     3     2
    12       C          1.42832950  *  113.2503526  *  -67.4700485  *    11     4     3
    13       O          1.35241329  *  125.3605438  *  179.8900906  *     3     2     1
    14       C          1.42395580  *  117.1344329  *   -0.9487197  *    13     3     2
    15       H          1.09772166  *  120.1052081  * -179.9372958  *     1     2     3
    16       H          1.08405869  *  119.7837153  * -179.5452794  *     2     1     6
    17       H          1.09811752  *  118.2259067  * -178.7883010  *     7     6     1
    18       H          1.09827341  *  101.7344724  *  174.2188779  *    10     9     5
    19       H          1.09380393  *  110.5814757  *  -67.6480693  *    10     9     5
    20       H          1.09609491  *  111.0909843  *   56.1307323  *    10     9     5
    21       H          1.09626134  *  102.6712707  * -163.9406317  *    12    11     4
    22       H          1.09214457  *  112.0596428  *  -44.6862025  *    12    11     4
    23       H          1.09557879  *  109.6392810  *   78.6299700  *    12    11     4
    24       H          1.09874285  *  101.9216475  *  179.8431933  *    14    13     3
    25       H          1.09419707  *  111.0203724  *  -62.3280423  *    14    13     3
    26       H          1.09476306  *  110.9360655  *   62.3993940  *    14    13     3

                             CARTESIAN COORDINATES

   1    C        0.000000000     0.000000000     0.000000000
   2    C        1.389820559     0.000000000     0.000000000
   3    C        2.068072810     1.222041668     0.000000000
   4    C        1.364848459     2.444485654     0.004759855
   5    C       -0.034023840     2.422675232    -0.008388332
   6    C       -0.724579452     1.191227216    -0.006125348
   7    C       -2.194060493     1.149324028    -0.012985489
   8    O       -2.798215887     0.100573921     0.008632383
   9    O       -0.861046338     3.486917475    -0.026521376
  10    C       -0.303973622     4.791320538    -0.148654319
  11    O        2.020315241     3.643125949    -0.097749658
  12    C        2.826028528     3.944478795     1.042486158
  13    O        3.412240232     1.371142848     0.002115725
  14    C        4.197371835     0.183426262     0.025520545
  15    H       -0.550605523    -0.949644841     0.001039287
  16    H        1.928302110    -0.940858097    -0.002629111
  17    H       -2.740662533     2.101402353    -0.038187669
  18    H       -1.205638511     5.411499745    -0.241296938
  19    H        0.263990415     5.052459933     0.748914678
  20    H        0.319828644     4.871339577    -1.046369044
  21    H        3.017793865     5.017386228     0.924653123
  22    H        2.303748395     3.739567329     1.979510445
  23    H        3.763495785     3.379901324     0.990521732
  24    H        5.219381616     0.586776237     0.019143711
  25    H        4.014894053    -0.389742875     0.939548024
  26    H        4.021031438    -0.419801655    -0.870875739


           Empirical Formula: C10 H12 O4  =    26 atoms



      MOLECULAR POINT GROUP   :   C1  


                  EIGENVALUES  
 -31.41403 -31.09625 -30.67484 -30.07195 -29.99784 -26.48066 -26.11195 -25.05575
 -24.57273 -24.18354 -22.62386 -21.14700 -19.86008 -18.63966 -17.62534 -16.95676
 -16.65058 -16.55188 -16.04032 -15.94005 -15.29433 -15.11208 -14.87631 -14.36988
 -14.20443 -14.03030 -13.56543 -13.43365 -13.22271 -13.04482 -12.63830 -12.41572
 -12.11427 -11.43147 -10.60271  -9.88964  -9.22606  -9.15985  -0.38551   0.04271
   1.15721   1.32040   1.53410   2.14127   2.45096   3.57156   3.66140   3.88254
   4.10909   4.18539   4.59193   4.69506   4.77783   4.95796   5.03338   5.09959
   5.37970   5.40904   5.44493   5.48696   5.49323   5.54787   5.63039   5.80772
   5.96980   5.99920   6.09249   6.15607


              NET ATOMIC CHARGES AND DIPOLE CONTRIBUTIONS

  ATOM NO.   TYPE          CHARGE      No. of ELECS.   s-Pop       p-Pop       
    1          C           0.035710        3.9643     1.09209     2.87220
    2          C          -0.372395        4.3724     1.06845     3.30394
    3          C           0.273146        3.7269     1.09566     2.63120
    4          C          -0.077764        4.0778     1.05945     3.01832
    5          C           0.291018        3.7090     1.09063     2.61835
    6          C          -0.327902        4.3279     1.06467     3.26323
    7          C           0.381570        3.6184     1.12806     2.49037
    8          O          -0.464702        6.4647     1.87892     4.58578
    9          O          -0.310221        6.3102     1.86046     4.44976
   10          C          -0.180941        4.1809     1.09068     3.09026
   11          O          -0.298735        6.2987     1.87548     4.42326
   12          C          -0.213031        4.2130     1.08676     3.12627
   13          O          -0.286994        6.2870     1.86651     4.42049
   14          C          -0.209162        4.2092     1.08914     3.12003
   15          H           0.178063        0.8219     0.82194
   16          H           0.173613        0.8264     0.82639
   17          H           0.122313        0.8777     0.87769
   18          H           0.146553        0.8534     0.85345
   19          H           0.139516        0.8605     0.86048
   20          H           0.150359        0.8496     0.84964
   21          H           0.143313        0.8567     0.85669
   22          H           0.130596        0.8694     0.86940
   23          H           0.142348        0.8577     0.85765
   24          H           0.153653        0.8463     0.84635
   25          H           0.138310        0.8617     0.86169
   26          H           0.141766        0.8582     0.85823
 DIPOLE           X         Y         Z       TOTAL
 POINT-CHG.     4.311     1.734     1.320     4.831
 HYBRID         0.265     0.246    -0.112     0.379
 SUM            4.576     1.980     1.208     5.130


          ATOMIC ORBITAL ELECTRON POPULATIONS

     Atom    s        px        py        pz   
    1  C   1.09209   0.98006   1.05332   0.83882
    2  C   1.06845   1.03137   1.05982   1.21275
    3  C   1.09566   0.80603   0.96802   0.85715
    4  C   1.05945   0.93228   0.87239   1.21365
    5  C   1.09063   0.90830   0.85345   0.85661
    6  C   1.06467   1.04668   0.97960   1.23695
    7  C   1.12806   0.89756   0.92447   0.66834
    8  O   1.87892   1.74680   1.44533   1.39365
    9  O   1.86046   1.37335   1.21737   1.85905
   10  C   1.09068   1.11884   0.81253   1.15888
   11  O   1.87548   1.64952   1.37026   1.40348
   12  C   1.08676   1.04715   1.12307   0.95605
   13  O   1.86651   1.22287   1.33478   1.86283
   14  C   1.08914   1.02170   0.94835   1.14998
   15  H   0.82194
   16  H   0.82639
   17  H   0.87769
   18  H   0.85345
   19  H   0.86048
   20  H   0.84964
   21  H   0.85669
   22  H   0.86940
   23  H   0.85765
   24  H   0.84635
   25  H   0.86169
   26  H   0.85823

 **********************
 *                    *
 * JOB ENDED NORMALLY *
 *                    *
 **********************



 TOTAL JOB TIME:             1.27 SECONDS

 == MOPAC DONE ==
