 *******************************************************************************
 ** Site#: 32691        For non-commercial use only    Version 19.179W 32BITS **
 *******************************************************************************
 ** Cite this program as: MOPAC2016, Version: 19.179W, James J. P. Stewart,   **
 ** Stewart Computational Chemistry, web: HTTP://OpenMOPAC.net. Days left: 246**
 *******************************************************************************
 **                                                                           **
 **                                MOPAC2016                                  **
 **                                                                           **
 *******************************************************************************

                              PM7 CALCULATION RESULTS

 *******************************************************************************
 *  CALCULATION DONE:                                Fri Oct 25 11:35:06 2019  *
 *  T=         - A TIME OF 172800.0 SECONDS REQUESTED
 *  DUMP=N     - RESTART FILE WRITTEN EVERY  7200.000 SECONDS
 *******************************************************************************

 2,3,4-trimethoxybenzaldehyde.mop

  ATOM    CHEMICAL      BOND LENGTH      BOND ANGLE     TWIST ANGLE 
 NUMBER    SYMBOL       (ANGSTROMS)      (DEGREES)       (DEGREES) 
   (I)                     NA:I           NB:NA:I       NC:NB:NA:I       NA    NB    NC 
     1       O          0.00000000       0.0000000       0.0000000        0     0     0
     2       O          3.95581200  *    0.0000000       0.0000000        1     0     0
     3       O          5.83706900  *   24.0921660  *    0.0000000        1     2     0
     4       O          6.18867400  *   50.3187840  *    0.0056130  *     1     2     3
     5       C          1.20800000  *    0.0506920  *   -1.9337750  *     1     2     3
     6       C          1.35100000  *  120.0000000  *   -0.0058040  *     5     1     3
     7       C          1.35500000  *   59.9492320  *   -0.0048340  *     2     1     3
     8       C          1.35500000  *   24.0399610  *  179.9876770  *     3     1     5
     9       C          1.35500000  *    9.7316790  *    0.0101470  *     4     1     5
    10       C          1.39478400  *  119.9983620  *  179.9999990  *     9     4     8
    11       C          1.39481200  *  119.9985630  *    0.0000000  *     6     5     1
    12       C          1.40200000  *  110.8000000  *  180.0000000  *     2     7     6
    13       C          1.40200000  *  110.8000000  *  180.0000000  *     3     8     7
    14       C          1.40200000  *  110.8000000  *  180.0000000  *     4     9     8
    15       H          1.11300000  *  120.0000000  *  180.0000000  *     5     1     6
    16       H          1.10000000  *  120.0014180  *    0.0033680  *    10     9     4
    17       H          1.10000000  *  120.0002190  *   -0.0012130  *    11     6     5
    18       H          1.11300000  *  109.5000000  *  180.0000000  *    12     2     7
    19       H          1.11300000  *  109.4418350  *  -60.0363680  *    12     2     7
    20       H          1.11300000  *  109.4618400  *   59.9996120  *    12     2     7
    21       H          1.11300000  *  109.5000000  *  180.0000000  *    13     3     8
    22       H          1.11300000  *  109.4418350  *  -60.0363680  *    13     3     8
    23       H          1.11300000  *  109.4618400  *   59.9996120  *    13     3     8
    24       H          1.11300000  *  109.5000000  * -179.9999990  *    14     4     9
    25       H          1.11300000  *  109.4418350  *  -60.0363680  *    14     4     9
    26       H          1.11300000  *  109.4618400  *   59.9996120  *    14     4     9
 


          CARTESIAN COORDINATES 

    NO.       ATOM           X           Y           Z

     1         O          0.0000      0.0000      0.0000
     2         O          3.9558      0.0000      0.0000
     3         O          5.3286      2.3827      0.0000
     4         O          3.9516      4.7629     -0.0005
     5         C          1.2080      0.0011      0.0000
     6         C          1.8825      1.1717     -0.0001
     7         C          3.2773      1.1729     -0.0001
     8         C          3.9736      2.3815     -0.0002
     9         C          3.2751      3.5888     -0.0004
    10         C          1.8803      3.5876     -0.0005
    11         C          1.1840      2.3790     -0.0004
    12         C          5.3396      0.2254      0.0000
    13         C          5.8253      3.6938     -0.0001
    14         C          3.0645      5.8486     -0.0007
    15         H          1.7654     -0.9623      0.0002
    16         H          1.3295      4.5398     -0.0008
    17         H          0.0840      2.3780     -0.0004
    18         H          5.8749     -0.7504      0.0001
    19         H          5.6210      0.8022     -0.9093
    20         H          5.6212      0.8029      0.9088
    21         H          6.9380      3.6696      0.0000
    22         H          5.4664      4.2258     -0.9095
    23         H          5.4658      4.2266      0.9086
    24         H          3.6419      6.8001     -0.0008
    25         H          2.4243      5.8037     -0.9100
    26         H          2.4235      5.8038      0.9081

 General Reference for PM7:
 "Optimization of Parameters for Semiempirical Methods VI: More Modifications to the 
 NDDO Approximations and Re-optimization of Parameters", J. J. P. Stewart, J. Mol. Mod., 1:32, 19 (2013)
 http://www.springerlink.com/openurl.asp?genre=article&id=doi:10.1007/s00894-012-1667-x

           Empirical Formula: C10 H12 O4  =    26 atoms



      MOLECULAR POINT GROUP   :   Cs  


      RHF CALCULATION, NO. OF DOUBLY OCCUPIED LEVELS = 38


          Geometry optimization using EF

          DIAGONAL MATRIX USED AS START HESSIAN

 CYCLE:     1 TIME:   0.043 TIME LEFT:  2.00D  GRAD.:   531.519 HEAT: -78.68037
 CYCLE:     2 TIME:   0.172 TIME LEFT:  2.00D  GRAD.:   633.580 HEAT: -84.14617
 CYCLE:     3 TIME:   0.031 TIME LEFT:  2.00D  GRAD.:   243.984 HEAT: -92.19273
 CYCLE:     4 TIME:   0.016 TIME LEFT:  2.00D  GRAD.:   235.510 HEAT: -98.23519
 CYCLE:     5 TIME:   0.031 TIME LEFT:  2.00D  GRAD.:   161.068 HEAT: -104.8048
 CYCLE:     6 TIME:   0.031 TIME LEFT:  2.00D  GRAD.:   343.399 HEAT: -106.8505
 CYCLE:     7 TIME:   0.031 TIME LEFT:  2.00D  GRAD.:   129.544 HEAT: -110.6951
 CYCLE:     8 TIME:   0.047 TIME LEFT:  2.00D  GRAD.:   159.819 HEAT: -111.4917
 CYCLE:     9 TIME:   0.016 TIME LEFT:  2.00D  GRAD.:    62.912 HEAT: -113.5274
 CYCLE:    10 TIME:   0.016 TIME LEFT:  2.00D  GRAD.:   128.586 HEAT: -115.1543
 CYCLE:    11 TIME:   0.031 TIME LEFT:  2.00D  GRAD.:    73.333 HEAT: -117.0797
 CYCLE:    12 TIME:   0.031 TIME LEFT:  2.00D  GRAD.:   105.252 HEAT: -117.2016
 CYCLE:    13 TIME:   0.031 TIME LEFT:  2.00D  GRAD.:    60.523 HEAT: -118.1226
 CYCLE:    14 TIME:   0.031 TIME LEFT:  2.00D  GRAD.:    71.549 HEAT: -118.2287
 CYCLE:    15 TIME:   0.016 TIME LEFT:  2.00D  GRAD.:    24.780 HEAT: -118.6735
 CYCLE:    16 TIME:   0.016 TIME LEFT:  2.00D  GRAD.:    16.360 HEAT: -119.0621
 CYCLE:    17 TIME:   0.016 TIME LEFT:  2.00D  GRAD.:    33.021 HEAT: -119.4309
 CYCLE:    18 TIME:   0.094 TIME LEFT:  2.00D  GRAD.:    18.279 HEAT: -119.5537
 CYCLE:    19 TIME:   0.031 TIME LEFT:  2.00D  GRAD.:    15.069 HEAT: -119.6557
 CYCLE:    20 TIME:   0.016 TIME LEFT:  2.00D  GRAD.:     6.251 HEAT: -119.6994
 CYCLE:    21 TIME:   0.031 TIME LEFT:  2.00D  GRAD.:     7.344 HEAT: -119.7309
 CYCLE:    22 TIME:   0.016 TIME LEFT:  2.00D  GRAD.:     6.867 HEAT: -119.7621
 CYCLE:    23 TIME:   0.031 TIME LEFT:  2.00D  GRAD.:     4.356 HEAT: -119.7805
 CYCLE:    24 TIME:   0.156 TIME LEFT:  2.00D  GRAD.:     5.527 HEAT: -119.7995
 CYCLE:    25 TIME:   0.062 TIME LEFT:  2.00D  GRAD.:     3.037 HEAT: -119.8057
 CYCLE:    26 TIME:   0.031 TIME LEFT:  2.00D  GRAD.:     0.900 HEAT: -119.8076

     GRADIENT =  0.90018 IS LESS THAN CUTOFF =  1.00000



 -------------------------------------------------------------------------------

 2,3,4-trimethoxybenzaldehyde.mop



     GEOMETRY OPTIMISED USING EIGENVECTOR FOLLOWING (EF).     
     SCF FIELD WAS ACHIEVED                                   


                              PM7 CALCULATION
                                                       MOPAC2016 (Version: 19.179W)
                                                       Fri Oct 25 11:35:07 2019
                                                       No. of days remaining = 246




          FINAL HEAT OF FORMATION =       -119.80763 KCAL/MOL =    -501.27513 KJ/MOL


          TOTAL ENERGY            =      -2570.01438 EV
          ELECTRONIC ENERGY       =     -14603.73974 EV  POINT GROUP:     Cs  
          CORE-CORE REPULSION     =      12033.72536 EV
          COSMO AREA              =        219.78 SQUARE ANGSTROMS
          COSMO VOLUME            =        228.54 CUBIC ANGSTROMS

          GRADIENT NORM           =          0.90018 = 0.17654 PER ATOM
          IONIZATION POTENTIAL    =          8.671384 EV
          HOMO LUMO ENERGIES (EV) =         -8.671 -0.366
          NO. OF FILLED LEVELS    =         38
          MOLECULAR WEIGHT        =        196.2024

          MOLECULAR DIMENSIONS (Angstroms)

            Atom       Atom       Distance
            H    24    H    15     8.10899
            H    21    H    17     6.54337
            H    23    H    19     1.81654


          SCF CALCULATIONS        =         35
 
          WALL-CLOCK TIME         =          1.141 SECONDS
          COMPUTATION TIME        =          1.591 SECONDS




  ATOM    CHEMICAL      BOND LENGTH      BOND ANGLE     TWIST ANGLE 
 NUMBER    SYMBOL       (ANGSTROMS)      (DEGREES)       (DEGREES) 
   (I)                     NA:I           NB:NA:I       NC:NB:NA:I       NA    NB    NC 
     1       O          0.00000000       0.0000000       0.0000000        0     0     0
     2       O          3.89178030  *    0.0000000       0.0000000        1     0     0
     3       O          5.93032275  *   22.8400845  *    0.0000000        1     2     0
     4       O          6.34400538  *   49.0296019  *    0.0820122  *     1     2     3
     5       C          1.21062550  *    0.2196580  *   -1.9303792  *     1     2     3
     6       C          1.47225905  *  121.5710678  *   -0.0588026  *     5     1     3
     7       C          1.35056085  *   67.9501167  *   -0.0616275  *     2     1     3
     8       C          1.36658525  *   29.4624150  *  179.8218298  *     3     1     5
     9       C          1.35874864  *    6.5411527  *    0.0147220  *     4     1     5
    10       C          1.39876829  *  123.9423634  *  179.9865497  *     9     4     8
    11       C          1.39451854  *  119.5234872  *   -0.0435828  *     6     5     1
    12       C          1.42194638  *  119.5369572  *  179.8663908  *     2     7     6
    13       C          1.41927861  *  118.1571554  *  179.8980105  *     3     8     7
    14       C          1.42242294  *  117.3633251  *  179.8492630  *     4     9     8
    15       H          1.09799749  *  120.1794144  * -179.9907869  *     5     1     6
    16       H          1.08488754  *  120.9555078  *    0.0286819  *    10     9     4
    17       H          1.09649383  *  118.7497303  *    0.0501988  *    11     6     5
    18       H          1.09863146  *  101.7040970  *  179.9727689  *    12     2     7
    19       H          1.09536977  *  110.8708685  *  -62.1641646  *    12     2     7
    20       H          1.09541265  *  110.9022484  *   62.1175386  *    12     2     7
    21       H          1.09826590  *  101.8317722  *  179.9693258  *    13     3     8
    22       H          1.09506448  *  111.0795442  *  -62.3721815  *    13     3     8
    23       H          1.09511048  *  111.0948000  *   62.3208791  *    13     3     8
    24       H          1.09852554  *  101.9242395  *  179.9612966  *    14     4     9
    25       H          1.09466145  *  111.0069304  *  -62.4266440  *    14     4     9
    26       H          1.09467736  *  111.0296168  *   62.3458680  *    14     4     9

                             CARTESIAN COORDINATES

   1    O        0.000000000     0.000000000     0.000000000
   2    O        3.891780299     0.000000000     0.000000000
   3    O        5.465336927     2.301916643     0.000000000
   4    O        4.159567792     4.790026415    -0.006856363
   5    C        1.210616601     0.004638597     0.000156340
   6    C        1.976614711     1.261933762    -0.001420213
   7    C        3.384761276     1.251776542    -0.001346416
   8    C        4.107871229     2.459513455    -0.002315858
   9    C        3.391347494     3.669297679    -0.005264252
  10    C        1.992629958     3.681182451    -0.006127973
  11    C        1.297880510     2.480127037    -0.004061531
  12    C        5.301600580    -0.185287334    -0.002625862
  13    C        6.274923408     3.467640678    -0.002994792
  14    C        3.487244929     6.043513162    -0.013178989
  15    H        1.766222862    -0.942408796     0.001343301
  16    H        1.442520353     4.616251484    -0.008639011
  17    H        0.201410196     2.472946358    -0.004066324
  18    H        5.382389811    -1.280941541    -0.000167770
  19    H        5.748869278     0.235949194    -0.909458500
  20    H        5.753355658     0.240021410     0.900124765
  21    H        7.286270877     3.039443450     0.000385659
  22    H        6.111586211     4.058267224    -0.910545048
  23    H        6.108750856     4.065237865     0.899519059
  24    H        4.327135464     6.751568003    -0.012407374
  25    H        2.887604354     6.162610654    -0.921215698
  26    H        2.880972689     6.168653321     0.889645706


           Empirical Formula: C10 H12 O4  =    26 atoms



      MOLECULAR POINT GROUP   :   Cs  


                  EIGENVALUES  
 -31.32542 -30.98089 -30.63750 -30.11226 -30.01617 -26.46377 -26.11018 -25.35111
 -24.60239 -23.98250 -22.53678 -21.14123 -19.90056 -18.61566 -17.57067 -16.97153
 -16.65641 -16.59916 -15.94526 -15.86140 -15.31534 -15.28270 -14.74399 -14.31942
 -14.21104 -13.98525 -13.47823 -13.33455 -13.28370 -13.06728 -12.36170 -12.31628
 -11.82462 -11.79488 -11.38459  -9.87364  -9.20134  -8.67138  -0.36569   0.15086
   1.07902   1.36982   1.57446   2.05052   2.46781   3.45384   3.70568   3.93441
   4.05888   4.21340   4.66403   4.73654   4.80779   4.96673   5.05424   5.11156
   5.43926   5.47647   5.48510   5.52130   5.52743   5.57313   5.63911   5.84411
   6.04771   6.06708   6.10265   6.12725


              NET ATOMIC CHARGES AND DIPOLE CONTRIBUTIONS

  ATOM NO.   TYPE          CHARGE      No. of ELECS.   s-Pop       p-Pop       
    1          O          -0.462630        6.4626     1.87907     4.58356
    2          O          -0.311796        6.3118     1.85995     4.45185
    3          O          -0.315051        6.3151     1.86695     4.44810
    4          O          -0.316797        6.3168     1.86669     4.45011
    5          C           0.381124        3.6189     1.12902     2.48986
    6          C          -0.301025        4.3010     1.06580     3.23522
    7          C           0.263527        3.7365     1.08524     2.65123
    8          C          -0.019741        4.0197     1.06711     2.95263
    9          C           0.226369        3.7736     1.08630     2.68733
   10          C          -0.339478        4.3395     1.06957     3.26991
   11          C           0.001535        3.9985     1.08868     2.90978
   12          C          -0.182013        4.1820     1.09029     3.09172
   13          C          -0.191725        4.1917     1.08720     3.10452
   14          C          -0.199707        4.1997     1.08803     3.11168
   15          H           0.123459        0.8765     0.87654
   16          H           0.171905        0.8281     0.82809
   17          H           0.179098        0.8209     0.82090
   18          H           0.147312        0.8527     0.85269
   19          H           0.145537        0.8545     0.85446
   20          H           0.145727        0.8543     0.85427
   21          H           0.143460        0.8565     0.85654
   22          H           0.140992        0.8590     0.85901
   23          H           0.141111        0.8589     0.85889
   24          H           0.150479        0.8495     0.84952
   25          H           0.139157        0.8608     0.86084
   26          H           0.139172        0.8608     0.86083
 DIPOLE           X         Y         Z       TOTAL
 POINT-CHG.     4.064     3.467    -0.019     5.342
 HYBRID         0.390     0.069     0.001     0.396
 SUM            4.453     3.537    -0.018     5.687


          ATOMIC ORBITAL ELECTRON POPULATIONS

     Atom    s        px        py        pz   
    1  O   1.87907   1.26774   1.92438   1.39144
    2  O   1.85995   1.29004   1.29151   1.87030
    3  O   1.86695   1.19511   1.33498   1.91801
    4  O   1.86669   1.36372   1.20359   1.88280
    5  C   1.12902   0.85496   0.96738   0.66752
    6  C   1.06580   0.97587   1.04631   1.21305
    7  C   1.08524   0.92881   0.82567   0.89675
    8  C   1.06711   0.83257   0.96415   1.15591
    9  C   1.08630   0.92981   0.83922   0.91830
   10  C   1.06957   0.99872   1.08690   1.18428
   11  C   1.08868   1.08629   0.94985   0.87365
   12  C   1.09029   0.80151   1.12833   1.16188
   13  C   1.08720   0.99699   0.95095   1.15659
   14  C   1.08803   1.10826   0.85423   1.14919
   15  H   0.87654
   16  H   0.82809
   17  H   0.82090
   18  H   0.85269
   19  H   0.85446
   20  H   0.85427
   21  H   0.85654
   22  H   0.85901
   23  H   0.85889
   24  H   0.84952
   25  H   0.86084
   26  H   0.86083

 **********************
 *                    *
 * JOB ENDED NORMALLY *
 *                    *
 **********************



 TOTAL JOB TIME:             1.14 SECONDS

 == MOPAC DONE ==
