 *******************************************************************************
 ** Site#: 32691        For non-commercial use only    Version 19.179W 32BITS **
 *******************************************************************************
 ** Cite this program as: MOPAC2016, Version: 19.179W, James J. P. Stewart,   **
 ** Stewart Computational Chemistry, web: HTTP://OpenMOPAC.net. Days left: 243**
 *******************************************************************************
 **                                                                           **
 **                                MOPAC2016                                  **
 **                                                                           **
 *******************************************************************************

                              PM7 CALCULATION RESULTS

 *******************************************************************************
 *  CALCULATION DONE:                                Mon Oct 28 10:39:11 2019  *
 *  T=         - A TIME OF 172800.0 SECONDS REQUESTED
 *  DUMP=N     - RESTART FILE WRITTEN EVERY  7200.000 SECONDS
 *******************************************************************************

 2,4-dimethoxy-3-methylbenzaldehyde.mop

  ATOM    CHEMICAL      BOND LENGTH      BOND ANGLE     TWIST ANGLE 
 NUMBER    SYMBOL       (ANGSTROMS)      (DEGREES)       (DEGREES) 
   (I)                     NA:I           NB:NA:I       NC:NB:NA:I       NA    NB    NC 
     1       C          0.00000000       0.0000000       0.0000000        0     0     0
     2       C          1.33482800  *    0.0000000       0.0000000        1     0     0
     3       C          1.34357600  *  121.4825050  *    0.0000000        2     1     0
     4       C          1.35946800  *  117.7613350  *   -0.0018190  *     3     2     1
     5       C          1.36364800  *  122.2106760  *    0.0067160  *     4     3     2
     6       C          1.34169200  *  120.3418830  *   -0.0012950  *     1     2     3
     7       C          1.36655800  *  117.6534430  * -179.9989550  *     6     1     2
     8       O          1.21232900  *  126.1437000  *   -0.0031940  *     7     6     1
     9       O          1.38207100  *  127.8846840  * -179.9994380  *     5     4     3
    10       C          1.40265000  *  125.7802870  *    0.0558850  *     9     5     4
    11       C          1.52282100  *  115.2925420  * -179.9983880  *     4     3     2
    12       O          1.37822100  *  122.2376950  * -179.9988590  *     3     2     1
    13       C          1.40886100  *  120.0145200  *    0.0152730  *    12     3     2
    14       H          1.10307100  *  117.0453380  *  179.9998510  *     1     2     3
    15       H          1.10116300  *  116.6322870  *  179.9985200  *     2     1     6
    16       H          1.11394400  *  117.4826330  *  179.9968090  *     7     6     1
    17       H          1.11369000  *  106.9471460  *  179.9724150  *    10     9     5
    18       H          1.10965700  *  111.1125630  *  -64.6487140  *    10     9     5
    19       H          1.10966400  *  111.1104480  *   64.5891630  *    10     9     5
    20       H          1.10925800  *  115.7461240  *   -0.0036730  *    11     4     3
    21       H          1.11074700  *  111.3431930  *  116.9172720  *    11     4     3
    22       H          1.11074800  *  111.3408990  * -116.9248070  *    11     4     3
    23       H          1.11327200  *  107.6475300  *  179.9955050  *    13    12     3
    24       H          1.11284300  *  110.4771380  *  -62.4152570  *    13    12     3
    25       H          1.11284400  *  110.4758680  *   62.4056750  *    13    12     3
 


          CARTESIAN COORDINATES 

    NO.       ATOM           X           Y           Z

     1         C          0.0000      0.0000      0.0000
     2         C          1.3348      0.0000      0.0000
     3         C          2.0365      1.1458      0.0000
     4         C          1.3413      2.3141     -0.0000
     5         C         -0.0219      2.3487      0.0001
     6         C         -0.6778      1.1579      0.0000
     7         C         -2.0428      1.0938      0.0000
     8         O         -2.7112      0.0824     -0.0000
     9         O         -0.8427      3.4607      0.0000
    10         C         -0.4141      4.7962     -0.0012
    11         C          2.1918      3.5773     -0.0001
    12         O          3.4146      1.1640     -0.0000
    13         C          4.1354     -0.0466     -0.0004
    14         H         -0.5016     -0.9824     -0.0000
    15         H          1.8284     -0.9843      0.0000
    16         H         -2.6027      2.0569      0.0001
    17         H         -1.3293      5.4308     -0.0014
    18         H          0.1308      5.0420      0.9336
    19         H          0.1302      5.0405     -0.9369
    20         H          3.2897      3.4189     -0.0000
    21         H          2.0290      4.1741     -0.9226
    22         H          2.0289      4.1742      0.9223
    23         H          5.2196      0.2062     -0.0004
    24         H          3.9197     -0.6283      0.9235
    25         H          3.9196     -0.6279     -0.9245

 General Reference for PM7:
 "Optimization of Parameters for Semiempirical Methods VI: More Modifications to the 
 NDDO Approximations and Re-optimization of Parameters", J. J. P. Stewart, J. Mol. Mod., 1:32, 19 (2013)
 http://www.springerlink.com/openurl.asp?genre=article&id=doi:10.1007/s00894-012-1667-x

           Empirical Formula: C10 H12 O3  =    25 atoms



      MOLECULAR POINT GROUP   :   Cs  


      RHF CALCULATION, NO. OF DOUBLY OCCUPIED LEVELS = 35


          Geometry optimization using EF

          DIAGONAL MATRIX USED AS START HESSIAN

 CYCLE:     1 TIME:   0.113 TIME LEFT:  2.00D  GRAD.:   495.295 HEAT: -64.43225
 CYCLE:     2 TIME:   0.117 TIME LEFT:  2.00D  GRAD.:   399.018 HEAT: -69.15687
 CYCLE:     3 TIME:   0.012 TIME LEFT:  2.00D  GRAD.:   176.840 HEAT: -81.19422
 CYCLE:     4 TIME:   0.035 TIME LEFT:  2.00D  GRAD.:   112.262 HEAT: -88.57095
 CYCLE:     5 TIME:   0.031 TIME LEFT:  2.00D  GRAD.:    88.816 HEAT: -90.05110
 CYCLE:     6 TIME:   0.012 TIME LEFT:  2.00D  GRAD.:    27.685 HEAT: -91.79383
 CYCLE:     7 TIME:   0.035 TIME LEFT:  2.00D  GRAD.:    40.080 HEAT: -92.32206
 CYCLE:     8 TIME:   0.012 TIME LEFT:  2.00D  GRAD.:    15.267 HEAT: -92.45861
 CYCLE:     9 TIME:   0.031 TIME LEFT:  2.00D  GRAD.:    10.536 HEAT: -92.53197
 CYCLE:    10 TIME:   0.035 TIME LEFT:  2.00D  GRAD.:    14.496 HEAT: -92.55724
 CYCLE:    11 TIME:   0.012 TIME LEFT:  2.00D  GRAD.:     4.654 HEAT: -92.59389
 CYCLE:    12 TIME:   0.016 TIME LEFT:  2.00D  GRAD.:     2.189 HEAT: -92.59902
 CYCLE:    13 TIME:   0.016 TIME LEFT:  2.00D  GRAD.:     0.755 HEAT: -92.60143

     GRADIENT =  0.75452 IS LESS THAN CUTOFF =  1.00000



 -------------------------------------------------------------------------------

 2,4-dimethoxy-3-methylbenzaldehyde.mop



     GEOMETRY OPTIMISED USING EIGENVECTOR FOLLOWING (EF).     
     SCF FIELD WAS ACHIEVED                                   


                              PM7 CALCULATION
                                                       MOPAC2016 (Version: 19.179W)
                                                       Mon Oct 28 10:39:11 2019
                                                       No. of days remaining = 243




          FINAL HEAT OF FORMATION =        -92.60143 KCAL/MOL =    -387.44440 KJ/MOL


          TOTAL ENERGY            =      -2275.34524 EV
          ELECTRONIC ENERGY       =     -12584.29245 EV  POINT GROUP:     Cs  
          CORE-CORE REPULSION     =      10308.94722 EV
          COSMO AREA              =        210.53 SQUARE ANGSTROMS
          COSMO VOLUME            =        216.85 CUBIC ANGSTROMS

          GRADIENT NORM           =          0.75452 = 0.15090 PER ATOM
          IONIZATION POTENTIAL    =          9.145938 EV
          HOMO LUMO ENERGIES (EV) =         -9.146 -0.268
          NO. OF FILLED LEVELS    =         35
          MOLECULAR WEIGHT        =        180.2030

          MOLECULAR DIMENSIONS (Angstroms)

            Atom       Atom       Distance
            H    23    H    17     8.18405
            O     8    H    22     6.29543
            H    24    H    21     2.16645


          SCF CALCULATIONS        =         18
 
          WALL-CLOCK TIME         =          0.504 SECONDS
          COMPUTATION TIME        =          0.874 SECONDS




  ATOM    CHEMICAL      BOND LENGTH      BOND ANGLE     TWIST ANGLE 
 NUMBER    SYMBOL       (ANGSTROMS)      (DEGREES)       (DEGREES) 
   (I)                     NA:I           NB:NA:I       NC:NB:NA:I       NA    NB    NC 
     1       C          0.00000000       0.0000000       0.0000000        0     0     0
     2       C          1.38885620  *    0.0000000       0.0000000        1     0     0
     3       C          1.39664829  *  118.5213282  *    0.0000000        2     1     0
     4       C          1.41298621  *  123.0722384  *   -0.0088763  *     3     2     1
     5       C          1.39587764  *  116.6933354  *    0.0114431  *     4     3     2
     6       C          1.39254852  *  120.7766223  *   -0.0081302  *     1     2     3
     7       C          1.46974462  *  119.1780252  * -179.9927657  *     6     1     2
     8       O          1.21121659  *  121.5034016  *   -0.0217055  *     7     6     1
     9       O          1.35237877  *  128.9981422  *  179.9816523  *     5     4     3
    10       C          1.41642639  *  122.0488355  *    0.1103148  *     9     5     4
    11       C          1.48884635  *  118.1563636  * -179.9874050  *     4     3     2
    12       O          1.35588682  *  123.9910048  *  179.9979581  *     3     2     1
    13       C          1.42246843  *  117.6362593  *    0.0537839  *    12     3     2
    14       H          1.09738454  *  120.3851239  *  179.9960256  *     1     2     3
    15       H          1.08322859  *  119.8366736  *  179.9934920  *     2     1     6
    16       H          1.09786291  *  118.5525981  *  179.9719076  *     7     6     1
    17       H          1.10099424  *  101.3284064  *  179.9830099  *    10     9     5
    18       H          1.09324130  *  111.0771880  *  -62.8975284  *    10     9     5
    19       H          1.09323620  *  111.0639939  *   62.8709738  *    10     9     5
    20       H          1.10327952  *  112.6222635  *   -0.0136353  *    11     4     3
    21       H          1.09866037  *  111.9475307  *  118.4517322  *    11     4     3
    22       H          1.09867739  *  111.9549568  * -118.4877793  *    11     4     3
    23       H          1.09857266  *  102.0217523  * -179.9925986  *    13    12     3
    24       H          1.09461162  *  110.8673995  *  -62.3388693  *    13    12     3
    25       H          1.09459903  *  110.8571081  *   62.3593875  *    13    12     3

                             CARTESIAN COORDINATES

   1    C        0.000000000     0.000000000     0.000000000
   2    C        1.388856196     0.000000000     0.000000000
   3    C        2.055736013     1.227150261     0.000000000
   4    C        1.383546017     2.470006091    -0.000183434
   5    C       -0.011707733     2.428276705    -0.000121196
   6    C       -0.712556424     1.196434153     0.000169773
   7    C       -2.181729011     1.155432431     0.000325980
   8    O       -2.785593715     0.105483440    -0.000080884
   9    O       -0.893792871     3.453388464     0.000077034
  10    C       -0.474003217     4.806176631    -0.002050680
  11    C        2.203934167     3.712433820    -0.000452225
  12    O        3.405449188     1.356391946     0.000040064
  13    C        4.182385419     0.164844541    -0.001098269
  14    H       -0.555067859    -0.946653308    -0.000065666
  15    H        1.927794150    -0.939643579    -0.000026604
  16    H       -2.733167457     2.104757577     0.000931994
  17    H       -1.440948421     5.332679226    -0.001493737
  18    H        0.087747949     5.044935949     0.904925706
  19    H        0.085377445     5.042567345    -0.911104091
  20    H        3.287617615     3.505417324    -0.000234932
  21    H        2.025015956     4.322457290    -0.896507054
  22    H        2.024739383     4.323193398     0.895066600
  23    H        5.207411803     0.560043995    -0.000656526
  24    H        3.997652432    -0.421945135     0.904289055
  25    H        3.997693382    -0.419962628    -0.907760534


           Empirical Formula: C10 H12 O3  =    25 atoms



      MOLECULAR POINT GROUP   :   Cs  


                  EIGENVALUES  
 -31.34289 -30.99188 -30.55202 -29.95516 -27.64064 -26.38325 -25.21055 -24.79401
 -23.56611 -22.49709 -20.90745 -19.36298 -18.38635 -17.54261 -16.57896 -16.57115
 -16.12165 -16.05458 -15.31177 -14.50786 -14.43045 -14.30968 -14.10343 -13.99614
 -13.65205 -13.46023 -13.16652 -13.12807 -12.41840 -12.04043 -11.97270 -11.40415
  -9.83005  -9.29628  -9.14594  -0.26848   0.17226   1.28340   1.41025   1.55875
   2.49623   3.51136   3.67131   3.96827   4.17370   4.28918   4.45848   4.79028
   4.91560   5.06994   5.08573   5.10262   5.15122   5.28967   5.50998   5.54734
   5.61153   5.62653   5.69599   5.77673   5.89246   6.05919   6.19632   6.76889


              NET ATOMIC CHARGES AND DIPOLE CONTRIBUTIONS

  ATOM NO.   TYPE          CHARGE      No. of ELECS.   s-Pop       p-Pop       
    1          C           0.045322        3.9547     1.09277     2.86191
    2          C          -0.386512        4.3865     1.06825     3.31826
    3          C           0.319518        3.6805     1.09293     2.58755
    4          C          -0.233342        4.2333     1.04834     3.18500
    5          C           0.326809        3.6732     1.09161     2.58158
    6          C          -0.339408        4.3394     1.06513     3.27427
    7          C           0.381743        3.6183     1.12800     2.49026
    8          O          -0.469053        6.4691     1.87902     4.59003
    9          O          -0.330649        6.3306     1.85701     4.47364
   10          C          -0.185431        4.1854     1.08903     3.09640
   11          C          -0.411060        4.4111     1.04175     3.36931
   12          O          -0.313273        6.3133     1.86457     4.44870
   13          C          -0.200464        4.2005     1.08854     3.11193
   14          H           0.176876        0.8231     0.82312
   15          H           0.173099        0.8269     0.82690
   16          H           0.121043        0.8790     0.87896
   17          H           0.151960        0.8480     0.84804
   18          H           0.136987        0.8630     0.86301
   19          H           0.136963        0.8630     0.86304
   20          H           0.167475        0.8325     0.83252
   21          H           0.150480        0.8495     0.84952
   22          H           0.150493        0.8495     0.84951
   23          H           0.152082        0.8479     0.84792
   24          H           0.139173        0.8608     0.86083
   25          H           0.139167        0.8608     0.86083
 DIPOLE           X         Y         Z       TOTAL
 POINT-CHG.     4.108     2.645    -0.004     4.886
 HYBRID         0.231     0.116     0.000     0.259
 SUM            4.339     2.761    -0.004     5.143


          ATOMIC ORBITAL ELECTRON POPULATIONS

     Atom    s        px        py        pz   
    1  C   1.09277   0.98131   1.05087   0.82973
    2  C   1.06825   1.03413   1.06196   1.22217
    3  C   1.09293   0.79386   0.95984   0.83384
    4  C   1.04834   0.97068   0.99119   1.22314
    5  C   1.09161   0.90213   0.84085   0.83860
    6  C   1.06513   1.04532   0.98387   1.24508
    7  C   1.12800   0.89980   0.92322   0.66723
    8  O   1.87902   1.74780   1.44579   1.39644
    9  O   1.85701   1.38833   1.21465   1.87066
   10  C   1.08903   1.14630   0.80458   1.14552
   11  C   1.04175   1.14425   1.06306   1.16201
   12  O   1.86457   1.23728   1.34490   1.86652
   13  C   1.08854   1.02125   0.94221   1.14847
   14  H   0.82312
   15  H   0.82690
   16  H   0.87896
   17  H   0.84804
   18  H   0.86301
   19  H   0.86304
   20  H   0.83252
   21  H   0.84952
   22  H   0.84951
   23  H   0.84792
   24  H   0.86083
   25  H   0.86083

 **********************
 *                    *
 * JOB ENDED NORMALLY *
 *                    *
 **********************



 TOTAL JOB TIME:             0.57 SECONDS

 == MOPAC DONE ==
