 *******************************************************************************
 ** Site#: 32691        For non-commercial use only    Version 19.179W 32BITS **
 *******************************************************************************
 ** Cite this program as: MOPAC2016, Version: 19.179W, James J. P. Stewart,   **
 ** Stewart Computational Chemistry, web: HTTP://OpenMOPAC.net. Days left: 253**
 *******************************************************************************
 **                                                                           **
 **                                MOPAC2016                                  **
 **                                                                           **
 *******************************************************************************

                              PM7 CALCULATION RESULTS

 *******************************************************************************
 *  CALCULATION DONE:                                Fri Oct 18 16:00:41 2019  *
 *  T=         - A TIME OF 172800.0 SECONDS REQUESTED
 *  DUMP=N     - RESTART FILE WRITTEN EVERY  7200.000 SECONDS
 *******************************************************************************

 2,5-dihydroxybenzaldehyde.mop

  ATOM    CHEMICAL      BOND LENGTH      BOND ANGLE     TWIST ANGLE 
 NUMBER    SYMBOL       (ANGSTROMS)      (DEGREES)       (DEGREES) 
   (I)                     NA:I           NB:NA:I       NC:NB:NA:I       NA    NB    NC 
     1       C          0.00000000       0.0000000       0.0000000        0     0     0
     2       C          1.34859300  *    0.0000000       0.0000000        1     0     0
     3       C          1.34326400  *  122.8883660  *    0.0000000        2     1     0
     4       C          1.34057000  *  117.2882740  *   -0.0161560  *     3     2     1
     5       C          1.33934800  *  120.4373870  *    0.0227130  *     4     3     2
     6       C          1.35266700  *  119.4000600  *   -0.0087000  *     1     2     3
     7       O          1.36422900  *  124.8922540  *  179.9981350  *     6     1     2
     8       C          1.36284000  *  117.8087660  *  179.9973700  *     1     2     3
     9       O          1.20955500  *  126.6214840  * -179.9976100  *     8     1     2
    10       O          1.36021600  *  121.7475260  * -179.9935440  *     3     2     1
    11       H          1.10403800  *  121.0422470  *  179.9929450  *     2     1     6
    12       H          1.10278900  *  119.6569470  * -179.9802950  *     4     3     2
    13       H          1.10381600  *  118.5202150  *  179.9968100  *     5     4     3
    14       H          0.96545100  *  114.0144860  *   -0.1800040  *     7     6     1
    15       H          1.11655000  *  115.6251910  *   -0.0014320  *     8     1     2
    16       H          0.97082700  *  109.2919020  *  179.8816190  *    10     3     2
 


          CARTESIAN COORDINATES 

    NO.       ATOM           X           Y           Z

     1         C          0.0000      0.0000      0.0000
     2         C          1.3486      0.0000      0.0000
     3         C          2.0780      1.1280      0.0000
     4         C          1.4113      2.2910     -0.0003
     5         C          0.0720      2.3054     -0.0002
     6         C         -0.6640      1.1785      0.0002
     7         O         -2.0220      1.3090      0.0002
     8         C         -0.6358     -1.2054     -0.0001
     9         O         -1.8311     -1.3908     -0.0001
    10         O          3.4379      1.1009     -0.0001
    11         H          1.9179     -0.9459     -0.0000
    12         H          1.9713      3.2410     -0.0007
    13         H         -0.4446      3.2808     -0.0004
    14         H         -2.4975      0.4688     -0.0028
    15         H          0.0294     -2.1022     -0.0001
    16         H          3.7769      2.0106     -0.0020

 General Reference for PM7:
 "Optimization of Parameters for Semiempirical Methods VI: More Modifications to the 
 NDDO Approximations and Re-optimization of Parameters", J. J. P. Stewart, J. Mol. Mod., 1:32, 19 (2013)
 http://www.springerlink.com/openurl.asp?genre=article&id=doi:10.1007/s00894-012-1667-x

           Empirical Formula: C7 H6 O3  =    16 atoms



      MOLECULAR POINT GROUP   :   Cs  


      RHF CALCULATION, NO. OF DOUBLY OCCUPIED LEVELS = 26


          Geometry optimization using EF

          DIAGONAL MATRIX USED AS START HESSIAN

 CYCLE:     1 TIME:   0.016 TIME LEFT:  2.00D  GRAD.:   502.935 HEAT: -72.51006
 CYCLE:     2 TIME:   0.062 TIME LEFT:  2.00D  GRAD.:   395.573 HEAT: -78.07983
 CYCLE:     3 TIME:   0.016 TIME LEFT:  2.00D  GRAD.:   173.491 HEAT: -90.18483
 CYCLE:     4 TIME:   0.000 TIME LEFT:  2.00D  GRAD.:    62.955 HEAT: -97.19421
 CYCLE:     5 TIME:   0.035 TIME LEFT:  2.00D  GRAD.:    57.058 HEAT: -97.94157
 CYCLE:     6 TIME:   0.016 TIME LEFT:  2.00D  GRAD.:    18.936 HEAT: -98.85528
 CYCLE:     7 TIME:   0.016 TIME LEFT:  2.00D  GRAD.:    29.390 HEAT: -99.27413
 CYCLE:     8 TIME:   0.016 TIME LEFT:  2.00D  GRAD.:    17.934 HEAT: -99.33687
 CYCLE:     9 TIME:   0.016 TIME LEFT:  2.00D  GRAD.:    25.868 HEAT: -99.35321
 CYCLE:    10 TIME:   0.016 TIME LEFT:  2.00D  GRAD.:    14.535 HEAT: -99.49364
 CYCLE:    11 TIME:   0.000 TIME LEFT:  2.00D  GRAD.:     7.971 HEAT: -99.50701
 CYCLE:    12 TIME:   0.016 TIME LEFT:  2.00D  GRAD.:     1.687 HEAT: -99.51442
 CYCLE:    13 TIME:   0.016 TIME LEFT:  2.00D  GRAD.:     0.934 HEAT: -99.51705

     GRADIENT =  0.93445 IS LESS THAN CUTOFF =  1.00000



 -------------------------------------------------------------------------------

 2,5-dihydroxybenzaldehyde.mop



     GEOMETRY OPTIMISED USING EIGENVECTOR FOLLOWING (EF).     
     SCF FIELD WAS ACHIEVED                                   


                              PM7 CALCULATION
                                                       MOPAC2016 (Version: 19.179W)
                                                       Fri Oct 18 16:00:42 2019
                                                       No. of days remaining = 253




          FINAL HEAT OF FORMATION =        -99.51706 KCAL/MOL =    -416.37936 KJ/MOL


          TOTAL ENERGY            =      -1826.36557 EV
          ELECTRONIC ENERGY       =      -8035.27070 EV  POINT GROUP:     Cs  
          CORE-CORE REPULSION     =       6208.90513 EV
          COSMO AREA              =        159.20 SQUARE ANGSTROMS
          COSMO VOLUME            =        154.51 CUBIC ANGSTROMS

          GRADIENT NORM           =          0.93445 = 0.23361 PER ATOM
          IONIZATION POTENTIAL    =          9.023732 EV
          HOMO LUMO ENERGIES (EV) =         -9.024 -1.112
          NO. OF FILLED LEVELS    =         26
          MOLECULAR WEIGHT        =        138.1226

          MOLECULAR DIMENSIONS (Angstroms)

            Atom       Atom       Distance
            H    16    O     9     6.69353
            H    15    H    13     5.04824
            O     7    O     9     0.00156


          SCF CALCULATIONS        =         17
 
          WALL-CLOCK TIME         =          0.254 SECONDS
          COMPUTATION TIME        =          0.390 SECONDS




  ATOM    CHEMICAL      BOND LENGTH      BOND ANGLE     TWIST ANGLE 
 NUMBER    SYMBOL       (ANGSTROMS)      (DEGREES)       (DEGREES) 
   (I)                     NA:I           NB:NA:I       NC:NB:NA:I       NA    NB    NC 
     1       C          0.00000000       0.0000000       0.0000000        0     0     0
     2       C          1.40271667  *    0.0000000       0.0000000        1     0     0
     3       C          1.38687666  *  118.9677073  *    0.0000000        2     1     0
     4       C          1.40725880  *  122.3652872  *   -0.0209335  *     3     2     1
     5       C          1.37951460  *  119.0968983  *    0.0092874  *     4     3     2
     6       C          1.40256485  *  118.7716060  *   -0.0025660  *     1     2     3
     7       O          1.34241618  *  123.1085473  * -179.9750431  *     6     1     2
     8       C          1.46406915  *  119.9048213  *  179.9933198  *     1     2     3
     9       O          1.21725979  *  121.9551001  * -179.9786013  *     8     1     2
    10       O          1.36355578  *  115.3228011  *  179.9853925  *     3     2     1
    11       H          1.08982015  *  121.0773737  * -179.9989978  *     2     1     6
    12       H          1.08831995  *  120.1135602  * -179.9842026  *     4     3     2
    13       H          1.08945422  *  122.0440865  *  179.9980088  *     5     4     3
    14       H          1.01569916  *  110.7526523  *   -0.0691151  *     7     6     1
    15       H          1.09876315  *  118.5091324  *    0.0163006  *     8     1     2
    16       H          0.98599725  *  111.9182136  *  179.9094629  *    10     3     2

                             CARTESIAN COORDINATES

   1    C        0.000000000     0.000000000     0.000000000
   2    C        1.402716666     0.000000000     0.000000000
   3    C        2.074404050     1.213368427     0.000000000
   4    C        1.399316316     2.448129010    -0.000434281
   5    C        0.019840566     2.458479475    -0.000681666
   6    C       -0.675081593     1.229411646     0.000055060
   7    O       -2.013653781     1.330927394     0.000549397
   8    C       -0.729927319    -1.269135362    -0.000147970
   9    O       -1.946407774    -1.312684621    -0.000538775
  10    O        3.435201604     1.126683505     0.000314235
  11    H        1.965276539    -0.933399352    -0.000058129
  12    H        1.963411220     3.378847655    -0.000678227
  13    H       -0.551247894     3.386255508    -0.000987210
  14    H       -2.444346030     0.411064212    -0.000280236
  15    H       -0.154418880    -2.205121722     0.000017595
  16    H        3.860664761     2.016160619    -0.001146118


           Empirical Formula: C7 H6 O3  =    16 atoms



      MOLECULAR POINT GROUP   :   Cs  


                  EIGENVALUES  
 -31.85610 -31.20498 -30.48064 -29.91693 -27.17189 -25.39908 -23.55458 -21.84866
 -20.78289 -18.88381 -18.11123 -16.51332 -16.30758 -15.52349 -15.46306 -15.16526
 -14.92562 -14.37523 -13.92478 -13.81224 -13.49723 -12.59163 -11.89501 -10.72880
 -10.71683  -9.02373  -1.11185  -0.03241   0.66477   2.04103   2.04406   2.39585
   3.10804   3.59390   3.79572   4.10673   4.15936   4.35117   4.64746   4.89407
   5.10226   5.18977   5.34601   5.59609   5.68813   5.92058


              NET ATOMIC CHARGES AND DIPOLE CONTRIBUTIONS

  ATOM NO.   TYPE          CHARGE      No. of ELECS.   s-Pop       p-Pop       
    1          C          -0.304250        4.3043     1.06616     3.23809
    2          C          -0.131841        4.1318     1.07852     3.05332
    3          C           0.184090        3.8159     1.06844     2.74747
    4          C          -0.172647        4.1726     1.08643     3.08622
    5          C          -0.212218        4.2122     1.07879     3.13342
    6          C           0.329346        3.6707     1.08035     2.59030
    7          O          -0.467181        6.4672     1.84393     4.62325
    8          C           0.385977        3.6140     1.13375     2.48027
    9          O          -0.489342        6.4893     1.87875     4.61059
   10          O          -0.468011        6.4680     1.83993     4.62808
   11          H           0.175252        0.8247     0.82475
   12          H           0.161576        0.8384     0.83842
   13          H           0.183048        0.8170     0.81695
   14          H           0.375651        0.6243     0.62435
   15          H           0.126359        0.8736     0.87364
   16          H           0.324191        0.6758     0.67581
 DIPOLE           X         Y         Z       TOTAL
 POINT-CHG.     2.916     1.051    -0.004     3.100
 HYBRID        -0.168     0.152    -0.000     0.227
 SUM            2.748     1.204    -0.004     3.001


          ATOMIC ORBITAL ELECTRON POPULATIONS

     Atom    s        px        py        pz   
    1  C   1.06616   1.00856   1.02381   1.20573
    2  C   1.07852   0.98520   1.06162   1.00650
    3  C   1.06844   0.78220   0.96635   0.99892
    4  C   1.08643   1.02007   1.05356   1.01259
    5  C   1.07879   1.00014   1.06615   1.06714
    6  C   1.08035   0.78969   0.94820   0.85241
    7  O   1.84393   1.26833   1.49071   1.86420
    8  C   1.13375   0.85460   0.97429   0.65139
    9  O   1.87875   1.27726   1.91044   1.42289
   10  O   1.83993   1.27282   1.43702   1.91825
   11  H   0.82475
   12  H   0.83842
   13  H   0.81695
   14  H   0.62435
   15  H   0.87364
   16  H   0.67581

 **********************
 *                    *
 * JOB ENDED NORMALLY *
 *                    *
 **********************



 TOTAL JOB TIME:             0.25 SECONDS

 == MOPAC DONE ==
