 *******************************************************************************
 ** Site#: 32691        For non-commercial use only    Version 19.179W 32BITS **
 *******************************************************************************
 ** Cite this program as: MOPAC2016, Version: 19.179W, James J. P. Stewart,   **
 ** Stewart Computational Chemistry, web: HTTP://OpenMOPAC.net. Days left: 243**
 *******************************************************************************
 **                                                                           **
 **                                MOPAC2016                                  **
 **                                                                           **
 *******************************************************************************

                              PM7 CALCULATION RESULTS

 *******************************************************************************
 *  CALCULATION DONE:                                Mon Oct 28 09:54:02 2019  *
 *  T=         - A TIME OF 172800.0 SECONDS REQUESTED
 *  DUMP=N     - RESTART FILE WRITTEN EVERY  7200.000 SECONDS
 *******************************************************************************

 2,6-dimethoxybenzaldehyde.mop

  ATOM    CHEMICAL      BOND LENGTH      BOND ANGLE     TWIST ANGLE 
 NUMBER    SYMBOL       (ANGSTROMS)      (DEGREES)       (DEGREES) 
   (I)                     NA:I           NB:NA:I       NC:NB:NA:I       NA    NB    NC 
     1       C          0.00000000       0.0000000       0.0000000        0     0     0
     2       C          1.33658400  *    0.0000000       0.0000000        1     0     0
     3       C          1.33640500  *  119.3242730  *    0.0000000        2     1     0
     4       C          1.34727200  *  121.8103920  *    0.0024980  *     3     2     1
     5       C          1.36081000  *  117.3912280  *   -0.0059760  *     4     3     2
     6       C          1.34789200  *  122.0943650  *    0.0033080  *     1     2     3
     7       C          1.36883700  *  117.7228410  * -179.9962740  *     5     4     3
     8       O          1.21204600  *  129.2272690  *  179.9932370  *     7     5     4
     9       O          1.37851600  *  122.2067160  * -179.9963400  *     4     3     2
    10       C          1.40829400  *  120.1363430  *    0.0440390  *     9     4     3
    11       O          1.37675600  *  121.9637520  * -179.9960780  *     6     1     2
    12       C          1.40895500  *  120.1816510  *    0.0411700  *    11     6     1
    13       H          1.10101900  *  116.0169440  * -179.9987240  *     1     2     3
    14       H          1.10346800  *  120.3539150  * -179.9970220  *     2     1     6
    15       H          1.10097200  *  116.2672830  * -179.9995440  *     3     2     1
    16       H          1.11499700  *  116.3447650  *   -0.0060670  *     7     5     4
    17       H          1.11319200  *  107.6303060  *  179.9777410  *    10     9     4
    18       H          1.11278100  *  110.4453950  *  -62.4019510  *    10     9     4
    19       H          1.11278300  *  110.4441050  *   62.3565550  *    10     9     4
    20       H          1.11326600  *  107.5808330  *  179.9788920  *    12    11     6
    21       H          1.11288300  *  110.5268770  *  -62.4623360  *    12    11     6
    22       H          1.11288700  *  110.5255890  *   62.4193680  *    12    11     6
 


          CARTESIAN COORDINATES 

    NO.       ATOM           X           Y           Z

     1         C          0.0000      0.0000      0.0000
     2         C          1.3366      0.0000      0.0000
     3         C          1.9911      1.1652      0.0000
     4         C          1.3407      2.3450      0.0000
     5         C         -0.0197      2.3100     -0.0000
     6         C         -0.7162      1.1419     -0.0001
     7         C         -0.6874      3.5050     -0.0001
     8         O         -1.8809      3.7161     -0.0002
     9         O          2.0075      3.5516     -0.0000
    10         C          3.4155      3.5813     -0.0011
    11         O         -2.0929      1.1388      0.0000
    12         C         -2.7985     -0.0808      0.0010
    13         H         -0.4829     -0.9894      0.0000
    14         H          1.8942     -0.9522      0.0000
    15         H          3.0905      1.1064     -0.0000
    16         H         -0.0565      4.4243      0.0001
    17         H          3.7302      4.6490     -0.0014
    18         H          3.8150      3.1062      0.9225
    19         H          3.8136      3.1061     -0.9252
    20         H         -3.8855      0.1596      0.0013
    21         H         -2.5769     -0.6606     -0.9226
    22         H         -2.5761     -0.6595      0.9253

 General Reference for PM7:
 "Optimization of Parameters for Semiempirical Methods VI: More Modifications to the 
 NDDO Approximations and Re-optimization of Parameters", J. J. P. Stewart, J. Mol. Mod., 1:32, 19 (2013)
 http://www.springerlink.com/openurl.asp?genre=article&id=doi:10.1007/s00894-012-1667-x

           Empirical Formula: C9 H10 O3  =    22 atoms



      MOLECULAR POINT GROUP   :   Cs  


      RHF CALCULATION, NO. OF DOUBLY OCCUPIED LEVELS = 32


          Geometry optimization using EF

          DIAGONAL MATRIX USED AS START HESSIAN

 CYCLE:     1 TIME:   0.031 TIME LEFT:  2.00D  GRAD.:   468.246 HEAT: -56.64324
 CYCLE:     2 TIME:   0.047 TIME LEFT:  2.00D  GRAD.:   403.714 HEAT: -61.63844
 CYCLE:     3 TIME:   0.016 TIME LEFT:  2.00D  GRAD.:   180.501 HEAT: -74.18592
 CYCLE:     4 TIME:   0.016 TIME LEFT:  2.00D  GRAD.:    57.447 HEAT: -82.49543
 CYCLE:     5 TIME:   0.016 TIME LEFT:  2.00D  GRAD.:    62.992 HEAT: -84.11752
 CYCLE:     6 TIME:   0.016 TIME LEFT:  2.00D  GRAD.:    62.594 HEAT: -84.46898
 CYCLE:     7 TIME:   0.016 TIME LEFT:  2.00D  GRAD.:    21.885 HEAT: -85.35831
 CYCLE:     8 TIME:   0.016 TIME LEFT:  2.00D  GRAD.:    19.539 HEAT: -85.44095
 CYCLE:     9 TIME:   0.016 TIME LEFT:  2.00D  GRAD.:    14.690 HEAT: -85.54369
 CYCLE:    10 TIME:   0.016 TIME LEFT:  2.00D  GRAD.:    24.101 HEAT: -85.58736
 CYCLE:    11 TIME:   0.016 TIME LEFT:  2.00D  GRAD.:     4.709 HEAT: -85.62090
 CYCLE:    12 TIME:   0.016 TIME LEFT:  2.00D  GRAD.:     2.587 HEAT: -85.62602
 CYCLE:    13 TIME:   0.016 TIME LEFT:  2.00D  GRAD.:     1.133 HEAT: -85.62857
 CYCLE:    14 TIME:   0.078 TIME LEFT:  2.00D  GRAD.:     0.579 HEAT: -85.62920

     GRADIENT =  0.57942 IS LESS THAN CUTOFF =  1.00000



 -------------------------------------------------------------------------------

 2,6-dimethoxybenzaldehyde.mop



     GEOMETRY OPTIMISED USING EIGENVECTOR FOLLOWING (EF).     
     SCF FIELD WAS ACHIEVED                                   


                              PM7 CALCULATION
                                                       MOPAC2016 (Version: 19.179W)
                                                       Mon Oct 28 09:54:03 2019
                                                       No. of days remaining = 243




          FINAL HEAT OF FORMATION =        -85.62920 KCAL/MOL =    -358.27257 KJ/MOL


          TOTAL ENERGY            =      -2125.31309 EV
          ELECTRONIC ENERGY       =     -11037.77850 EV  POINT GROUP:     Cs  
          CORE-CORE REPULSION     =       8912.46541 EV
          COSMO AREA              =        196.41 SQUARE ANGSTROMS
          COSMO VOLUME            =        197.69 CUBIC ANGSTROMS

          GRADIENT NORM           =          0.57942 = 0.12353 PER ATOM
          IONIZATION POTENTIAL    =          9.136614 EV
          HOMO LUMO ENERGIES (EV) =         -9.137 -0.346
          NO. OF FILLED LEVELS    =         32
          MOLECULAR WEIGHT        =        166.1762

          MOLECULAR DIMENSIONS (Angstroms)

            Atom       Atom       Distance
            H    20    H    17     8.52333
            H    14    O     8     6.07286
            H    19    H    22     1.81248


          SCF CALCULATIONS        =         18
 
          WALL-CLOCK TIME         =          0.625 SECONDS
          COMPUTATION TIME        =          0.593 SECONDS




  ATOM    CHEMICAL      BOND LENGTH      BOND ANGLE     TWIST ANGLE 
 NUMBER    SYMBOL       (ANGSTROMS)      (DEGREES)       (DEGREES) 
   (I)                     NA:I           NB:NA:I       NC:NB:NA:I       NA    NB    NC 
     1       C          0.00000000       0.0000000       0.0000000        0     0     0
     2       C          1.38787408  *    0.0000000       0.0000000        1     0     0
     3       C          1.39448713  *  121.2788557  *    0.0000000        2     1     0
     4       C          1.39530019  *  118.5679839  *    0.0542633  *     3     2     1
     5       C          1.40855456  *  122.4095123  *   -0.0241824  *     4     3     2
     6       C          1.40427213  *  119.2371922  *   -0.0459234  *     1     2     3
     7       C          1.46781653  *  120.2088132  *  179.9818761  *     5     4     3
     8       O          1.20865446  *  123.4922815  * -179.9686053  *     7     5     4
     9       O          1.35431942  *  124.6697053  *  179.9633000  *     4     3     2
    10       C          1.42236236  *  117.8189544  *    0.1160414  *     9     4     3
    11       O          1.34522462  *  124.6543673  *  179.9960876  *     6     1     2
    12       C          1.42491076  *  117.5719674  *    0.0105669  *    11     6     1
    13       H          1.08316140  *  119.8179962  *  179.9642238  *     1     2     3
    14       H          1.09239428  *  119.5363879  *  179.9722749  *     2     1     6
    15       H          1.08205584  *  119.8338282  * -179.9612512  *     3     2     1
    16       H          1.10127425  *  117.0507810  *    0.0291471  *     7     5     4
    17       H          1.09932573  *  101.9152186  *  179.9976337  *    10     9     4
    18       H          1.09425907  *  110.8711433  *  -62.2975617  *    10     9     4
    19       H          1.09425021  *  110.8593005  *   62.2988754  *    10     9     4
    20       H          1.10076113  *  101.4046471  *  179.9696158  *    12    11     6
    21       H          1.09342118  *  111.1990017  *  -62.6980470  *    12    11     6
    22       H          1.09343499  *  111.2115655  *   62.6286951  *    12    11     6

                             CARTESIAN COORDINATES

   1    C        0.000000000     0.000000000     0.000000000
   2    C        1.387874081     0.000000000     0.000000000
   3    C        2.111897028     1.191799118     0.000000000
   4    C        1.411019750     2.398295005     0.001160564
   5    C        0.003557427     2.453750643     0.001825158
   6    C       -0.685883289     1.225374782     0.000982156
   7    C       -0.684464480     3.750326368     0.003444649
   8    O       -1.887473191     3.867006359     0.004635663
   9    O        1.987172255     3.623949381     0.002010364
  10    C        3.408019907     3.689512000    -0.000847188
  11    O       -2.025099739     1.352373074     0.001008385
  12    C       -2.800935299     0.157195595     0.000197290
  13    H       -0.538598210    -0.939760738    -0.000586798
  14    H        1.926398480    -0.950429721    -0.000301875
  15    H        3.193608565     1.164512147    -0.000634806
  16    H       -0.052850530     4.652473129     0.003592855
  17    H        3.585172453     4.774469172     0.000555802
  18    H        3.821252023     3.231151194     0.902782988
  19    H        3.817257024     3.234161343    -0.907800489
  20    H       -3.824506620     0.562135317     0.000990057
  21    H       -2.623975500    -0.428451659    -0.906043515
  22    H       -2.623285380    -0.430401182     0.905056729


           Empirical Formula: C9 H10 O3  =    22 atoms



      MOLECULAR POINT GROUP   :   Cs  


                  EIGENVALUES  
 -31.37749 -31.11935 -30.27210 -30.07579 -26.96248 -25.65630 -25.10117 -24.36155
 -22.85520 -20.87636 -19.93247 -18.56065 -17.22720 -16.57541 -16.36556 -16.27776
 -15.94380 -15.14674 -15.10995 -14.24101 -14.20802 -13.76438 -13.65058 -13.10669
 -12.80846 -12.67548 -12.42771 -12.12835 -11.49556  -9.62710  -9.59963  -9.13661
  -0.34577   0.26362   1.22991   1.46157   1.78532   2.48223   3.52188   3.79947
   4.00222   4.14081   4.52733   4.69359   4.86444   4.96944   5.03863   5.14909
   5.24970   5.35954   5.52654   5.58844   5.64364   5.76949   5.90140   5.92799
   6.07266   6.25063


              NET ATOMIC CHARGES AND DIPOLE CONTRIBUTIONS

  ATOM NO.   TYPE          CHARGE      No. of ELECS.   s-Pop       p-Pop       
    1          C          -0.396466        4.3965     1.06834     3.32813
    2          C           0.032859        3.9671     1.08808     2.87906
    3          C          -0.399633        4.3996     1.06614     3.33349
    4          C           0.352058        3.6479     1.09068     2.55726
    5          C          -0.386277        4.3863     1.06227     3.32400
    6          C           0.350699        3.6493     1.09419     2.55511
    7          C           0.376064        3.6239     1.12356     2.50038
    8          O          -0.440428        6.4404     1.87874     4.56168
    9          O          -0.319989        6.3200     1.86310     4.45689
   10          C          -0.192895        4.1929     1.08870     3.10419
   11          O          -0.220995        6.2210     1.86990     4.35109
   12          C          -0.229640        4.2296     1.09035     3.13929
   13          H           0.170898        0.8291     0.82910
   14          H           0.146076        0.8539     0.85392
   15          H           0.169100        0.8309     0.83090
   16          H           0.119973        0.8800     0.88003
   17          H           0.155656        0.8443     0.84434
   18          H           0.136895        0.8631     0.86310
   19          H           0.136909        0.8631     0.86309
   20          H           0.164436        0.8356     0.83556
   21          H           0.137346        0.8627     0.86265
   22          H           0.137354        0.8626     0.86265
 DIPOLE           X         Y         Z       TOTAL
 POINT-CHG.     3.867    -2.837    -0.009     4.796
 HYBRID        -0.271     0.090     0.001     0.286
 SUM            3.596    -2.747    -0.008     4.525


          ATOMIC ORBITAL ELECTRON POPULATIONS

     Atom    s        px        py        pz   
    1  C   1.06834   1.02929   1.06661   1.23223
    2  C   1.08808   0.98940   1.04108   0.84858
    3  C   1.06614   1.10033   0.99361   1.23955
    4  C   1.09068   0.91395   0.82983   0.81348
    5  C   1.06227   0.98854   1.04079   1.29468
    6  C   1.09419   0.81247   0.95036   0.79228
    7  C   1.12356   0.86667   0.95068   0.68303
    8  O   1.87874   1.27111   1.91035   1.38022
    9  O   1.86310   1.26555   1.32487   1.86647
   10  C   1.08870   0.80220   1.15480   1.14720
   11  O   1.86990   1.20827   1.31043   1.83239
   12  C   1.09035   1.03680   0.95588   1.14661
   13  H   0.82910
   14  H   0.85392
   15  H   0.83090
   16  H   0.88003
   17  H   0.84434
   18  H   0.86310
   19  H   0.86309
   20  H   0.83556
   21  H   0.86265
   22  H   0.86265

 **********************
 *                    *
 * JOB ENDED NORMALLY *
 *                    *
 **********************



 TOTAL JOB TIME:             0.62 SECONDS

 == MOPAC DONE ==
