 *******************************************************************************
 ** Site#: 32691        For non-commercial use only    Version 19.179W 32BITS **
 *******************************************************************************
 ** Cite this program as: MOPAC2016, Version: 19.179W, James J. P. Stewart,   **
 ** Stewart Computational Chemistry, web: HTTP://OpenMOPAC.net. Days left: 253**
 *******************************************************************************
 **                                                                           **
 **                                MOPAC2016                                  **
 **                                                                           **
 *******************************************************************************

                              PM7 CALCULATION RESULTS

 *******************************************************************************
 *  CALCULATION DONE:                                Fri Oct 18 16:05:24 2019  *
 *  T=         - A TIME OF 172800.0 SECONDS REQUESTED
 *  DUMP=N     - RESTART FILE WRITTEN EVERY  7200.000 SECONDS
 *******************************************************************************

 2-carboxybenzaldehyde.mop

  ATOM    CHEMICAL      BOND LENGTH      BOND ANGLE     TWIST ANGLE 
 NUMBER    SYMBOL       (ANGSTROMS)      (DEGREES)       (DEGREES) 
   (I)                     NA:I           NB:NA:I       NC:NB:NA:I       NA    NB    NC 
     1       C          0.00000000       0.0000000       0.0000000        0     0     0
     2       C          1.33827900  *    0.0000000       0.0000000        1     0     0
     3       C          1.35479900  *  123.6487310  *    0.0000000        2     1     0
     4       C          1.36560700  *  118.2597490  *   -0.0340270  *     3     2     1
     5       C          1.35579200  *  116.7218020  *    0.0460430  *     4     3     2
     6       C          1.33405500  *  118.3833210  *   -0.0018700  *     1     2     3
     7       C          1.37630300  *  128.0537760  * -179.9365840  *     4     3     2
     8       O          1.21603800  *  122.4121140  * -179.9967170  *     7     4     3
     9       O          1.34914000  *  126.8316020  *    0.0366460  *     7     4     3
    10       C          1.36815600  *  113.0157540  *  179.9636460  *     3     2     1
    11       O          1.20765900  *  131.9450150  * -179.9195820  *    10     3     2
    12       H          1.10292000  *  121.1981460  * -179.9835900  *     1     2     3
    13       H          1.10529600  *  113.9968270  *  179.9802480  *     2     1     6
    14       H          1.10316200  *  123.2288470  *  179.9830650  *     5     4     3
    15       H          1.10328100  *  120.0340660  * -179.9889650  *     6     1     2
    16       H          0.97081000  *  108.4807210  *  179.9182840  *     9     7     4
    17       H          1.11887800  *  115.0541370  *    0.0544070  *    10     3     2
 


          CARTESIAN COORDINATES 

    NO.       ATOM           X           Y           Z

     1         C          0.0000      0.0000      0.0000
     2         C          1.3383      0.0000      0.0000
     3         C          2.0890      1.1278      0.0000
     4         C          1.4459      2.3325     -0.0007
     5         C          0.0905      2.3001     -0.0004
     6         C         -0.6342      1.1737      0.0000
     7         C          2.0025      3.5913     -0.0021
     8         O          1.3272      4.6026     -0.0025
     9         O          3.3172      3.8942     -0.0036
    10         C          3.4336      0.8754      0.0008
    11         O          4.3927      1.6092      0.0023
    12         H         -0.5713     -0.9434      0.0003
    13         H          1.7878     -1.0098      0.0003
    14         H         -0.5359      3.2082     -0.0006
    15         H         -1.7370      1.2055      0.0002
    16         H          3.4103      4.8606     -0.0056
    17         H          3.7123     -0.2083      0.0004

 General Reference for PM7:
 "Optimization of Parameters for Semiempirical Methods VI: More Modifications to the 
 NDDO Approximations and Re-optimization of Parameters", J. J. P. Stewart, J. Mol. Mod., 1:32, 19 (2013)
 http://www.springerlink.com/openurl.asp?genre=article&id=doi:10.1007/s00894-012-1667-x

           Empirical Formula: C8 H6 O3  =    17 atoms



      MOLECULAR POINT GROUP   :   Cs  


      RHF CALCULATION, NO. OF DOUBLY OCCUPIED LEVELS = 28


          Geometry optimization using EF

          DIAGONAL MATRIX USED AS START HESSIAN

 CYCLE:     1 TIME:   0.016 TIME LEFT:  2.00D  GRAD.:   541.061 HEAT: -49.43385
 CYCLE:     2 TIME:   0.078 TIME LEFT:  2.00D  GRAD.:   395.116 HEAT: -56.44014
 CYCLE:     3 TIME:   0.031 TIME LEFT:  2.00D  GRAD.:   197.397 HEAT: -69.30842
 CYCLE:     4 TIME:   0.016 TIME LEFT:  2.00D  GRAD.:    69.991 HEAT: -79.44854
 CYCLE:     5 TIME:   0.016 TIME LEFT:  2.00D  GRAD.:    66.067 HEAT: -82.12854
 CYCLE:     6 TIME:   0.047 TIME LEFT:  2.00D  GRAD.:    33.327 HEAT: -82.80472
 CYCLE:     7 TIME:   0.000 TIME LEFT:  2.00D  GRAD.:    50.423 HEAT: -83.22261
 CYCLE:     8 TIME:   0.016 TIME LEFT:  2.00D  GRAD.:    34.514 HEAT: -83.43236
 CYCLE:     9 TIME:   0.016 TIME LEFT:  2.00D  GRAD.:    21.291 HEAT: -83.54167
 CYCLE:    10 TIME:   0.016 TIME LEFT:  2.00D  GRAD.:    40.369 HEAT: -83.54881
 CYCLE:    11 TIME:   0.016 TIME LEFT:  2.00D  GRAD.:     4.831 HEAT: -83.62881
 CYCLE:    12 TIME:   0.016 TIME LEFT:  2.00D  GRAD.:     5.061 HEAT: -83.63416
 CYCLE:    13 TIME:   0.016 TIME LEFT:  2.00D  GRAD.:     2.031 HEAT: -83.63878
 CYCLE:    14 TIME:   0.000 TIME LEFT:  2.00D  GRAD.:     0.911 HEAT: -83.63971

     GRADIENT =  0.91128 IS LESS THAN CUTOFF =  1.00000



 -------------------------------------------------------------------------------

 2-carboxybenzaldehyde.mop



     GEOMETRY OPTIMISED USING EIGENVECTOR FOLLOWING (EF).     
     SCF FIELD WAS ACHIEVED                                   


                              PM7 CALCULATION
                                                       MOPAC2016 (Version: 19.179W)
                                                       Fri Oct 18 16:05:24 2019
                                                       No. of days remaining = 253




          FINAL HEAT OF FORMATION =        -83.63971 KCAL/MOL =    -349.94856 KJ/MOL


          TOTAL ENERGY            =      -1948.85344 EV
          ELECTRONIC ENERGY       =      -9040.64503 EV  POINT GROUP:     Cs  
          CORE-CORE REPULSION     =       7091.79159 EV
          COSMO AREA              =        168.94 SQUARE ANGSTROMS
          COSMO VOLUME            =        167.42 CUBIC ANGSTROMS

          GRADIENT NORM           =          0.91128 = 0.22102 PER ATOM
          IONIZATION POTENTIAL    =         10.265869 EV
          HOMO LUMO ENERGIES (EV) =        -10.266 -1.204
          NO. OF FILLED LEVELS    =         28
          MOLECULAR WEIGHT        =        150.1336

          MOLECULAR DIMENSIONS (Angstroms)

            Atom       Atom       Distance
            H    16    H    12     7.12528
            H    17    H    14     5.60306
            O    11    H    12     0.01489


          SCF CALCULATIONS        =         19
 
          WALL-CLOCK TIME         =          0.344 SECONDS
          COMPUTATION TIME        =          0.515 SECONDS




  ATOM    CHEMICAL      BOND LENGTH      BOND ANGLE     TWIST ANGLE 
 NUMBER    SYMBOL       (ANGSTROMS)      (DEGREES)       (DEGREES) 
   (I)                     NA:I           NB:NA:I       NC:NB:NA:I       NA    NB    NC 
     1       C          0.00000000       0.0000000       0.0000000        0     0     0
     2       C          1.38969379  *    0.0000000       0.0000000        1     0     0
     3       C          1.40473429  *  121.5790172  *    0.0000000        2     1     0
     4       C          1.39604493  *  118.6584982  *   -0.0483056  *     3     2     1
     5       C          1.40588146  *  119.4908064  *    0.0641609  *     4     3     2
     6       C          1.39324692  *  119.6110032  *    0.0054741  *     1     2     3
     7       C          1.48367342  *  128.3925749  * -179.8227028  *     4     3     2
     8       O          1.21186000  *  124.3586811  * -179.9296521  *     7     4     3
     9       O          1.34198465  *  115.7203062  *    0.1337897  *     7     4     3
    10       C          1.49423723  *  113.0974917  *  179.9058531  *     3     2     1
    11       O          1.20097802  *  126.8027118  * -179.7969774  *    10     3     2
    12       H          1.08958556  *  120.1899461  * -179.9867777  *     1     2     3
    13       H          1.09195502  *  118.7110556  *  179.9955166  *     2     1     6
    14       H          1.09809390  *  119.2959645  *  179.9866867  *     5     4     3
    15       H          1.08951189  *  120.3752165  * -179.9788382  *     6     1     2
    16       H          0.99671197  *  112.6096069  *  179.9696739  *     9     7     4
    17       H          1.10529096  *  114.5320190  *    0.1420092  *    10     3     2

                             CARTESIAN COORDINATES

   1    C        0.000000000     0.000000000     0.000000000
   2    C        1.389693786     0.000000000     0.000000000
   3    C        2.125316542     1.196719506     0.000000000
   4    C        1.432312295     2.408612857    -0.001032804
   5    C        0.026446687     2.401947408    -0.000669264
   6    C       -0.688415615     1.211288947    -0.000115728
   7    C        1.984379051     3.785745605    -0.004842682
   8    O        1.310293921     4.792827314    -0.004279367
   9    O        3.323283882     3.876436751    -0.010480161
  10    C        3.603210421     0.976334676     0.002258470
  11    O        4.456626543     1.821328233     0.006133458
  12    H       -0.547918020    -0.941797480     0.000217341
  13    H        1.914261047    -0.957702938     0.000166439
  14    H       -0.515408221     3.357040665    -0.001261788
  15    H       -1.777830535     1.225820532     0.000230051
  16    H        3.643403845     4.820338117    -0.013337522
  17    H        3.908809121    -0.085868801     0.001108077


           Empirical Formula: C8 H6 O3  =    17 atoms



      MOLECULAR POINT GROUP   :   Cs  


                  EIGENVALUES  
 -31.72808 -31.33497 -31.08840 -29.93023 -27.24901 -27.07669 -23.77046 -22.46424
 -21.40283 -19.81916 -18.04404 -17.41207 -16.58021 -15.96820 -15.83640 -15.73285
 -15.00796 -14.59498 -14.54510 -13.66944 -13.58313 -13.01493 -12.69668 -11.89728
 -11.13157 -10.59098 -10.50694 -10.26587  -1.20405  -0.66142   0.85768   1.08826
   1.98878   2.10580   2.80484   3.42290   3.56380   4.06878   4.22256   4.31709
   4.40500   4.66210   4.78154   5.04792   5.12606   5.17963   5.44605   5.50161
   5.58161   5.70400


              NET ATOMIC CHARGES AND DIPOLE CONTRIBUTIONS

  ATOM NO.   TYPE          CHARGE      No. of ELECS.   s-Pop       p-Pop       
    1          C          -0.118685        4.1187     1.08712     3.03156
    2          C          -0.155335        4.1553     1.08795     3.06739
    3          C          -0.086334        4.0863     1.08659     2.99975
    4          C          -0.080679        4.0807     1.07184     3.00884
    5          C          -0.103684        4.1037     1.09551     3.00817
    6          C          -0.143973        4.1440     1.08611     3.05787
    7          C           0.617987        3.3820     1.10660     2.27542
    8          O          -0.525503        6.5255     1.88042     4.64508
    9          O          -0.471863        6.4719     1.84211     4.62976
   10          C           0.309155        3.6908     1.13829     2.55255
   11          O          -0.356182        6.3562     1.87854     4.47764
   12          H           0.155084        0.8449     0.84492
   13          H           0.155874        0.8441     0.84413
   14          H           0.186713        0.8133     0.81329
   15          H           0.160314        0.8397     0.83969
   16          H           0.347692        0.6523     0.65231
   17          H           0.109420        0.8906     0.89058
 DIPOLE           X         Y         Z       TOTAL
 POINT-CHG.    -1.901    -4.235    -0.009     4.642
 HYBRID         0.243     0.646    -0.001     0.690
 SUM           -1.658    -3.589    -0.009     3.953


          ATOMIC ORBITAL ELECTRON POPULATIONS

     Atom    s        px        py        pz   
    1  C   1.08712   1.00734   1.05974   0.96448
    2  C   1.08795   1.01470   1.05242   1.00027
    3  C   1.08659   1.02184   0.97791   1.00000
    4  C   1.07184   0.99409   0.96982   1.04493
    5  C   1.09551   0.99322   1.07364   0.94131
    6  C   1.08611   1.08539   0.98550   0.98697
    7  C   1.10660   0.75111   0.85242   0.67189
    8  O   1.88042   1.67901   1.44744   1.51863
    9  O   1.84211   1.34181   1.44684   1.84112
   10  C   1.13829   0.87742   0.96381   0.71132
   11  O   1.87854   1.55034   1.60822   1.31908
   12  H   0.84492
   13  H   0.84413
   14  H   0.81329
   15  H   0.83969
   16  H   0.65231
   17  H   0.89058

 **********************
 *                    *
 * JOB ENDED NORMALLY *
 *                    *
 **********************



 TOTAL JOB TIME:             0.34 SECONDS

 == MOPAC DONE ==
