 *******************************************************************************
 ** Site#: 32691        For non-commercial use only    Version 19.179W 32BITS **
 *******************************************************************************
 ** Cite this program as: MOPAC2016, Version: 19.179W, James J. P. Stewart,   **
 ** Stewart Computational Chemistry, web: HTTP://OpenMOPAC.net. Days left: 250**
 *******************************************************************************
 **                                                                           **
 **                                MOPAC2016                                  **
 **                                                                           **
 *******************************************************************************

                              PM7 CALCULATION RESULTS

 *******************************************************************************
 *  CALCULATION DONE:                                Mon Oct 21 16:01:14 2019  *
 *  T=         - A TIME OF 172800.0 SECONDS REQUESTED
 *  DUMP=N     - RESTART FILE WRITTEN EVERY  7200.000 SECONDS
 *******************************************************************************

 2-carboxybenzaldehyde2.mop

  ATOM    CHEMICAL      BOND LENGTH      BOND ANGLE     TWIST ANGLE 
 NUMBER    SYMBOL       (ANGSTROMS)      (DEGREES)       (DEGREES) 
   (I)                     NA:I           NB:NA:I       NC:NB:NA:I       NA    NB    NC 
     1       C          0.00000000       0.0000000       0.0000000        0     0     0
     2       C          1.35722800  *    0.0000000       0.0000000        1     0     0
     3       C          1.33955900  *  124.5576750  *    0.0000000        2     1     0
     4       C          1.33356600  *  118.9101300  *   -0.2040780  *     3     2     1
     5       C          1.33779500  *  118.1468760  *    1.3947710  *     4     3     2
     6       C          1.36701800  *  115.9578650  *   -1.7488340  *     1     2     3
     7       C          1.36741900  *  128.8254060  * -175.7503900  *     6     1     2
     8       O          1.20573700  *  130.2294780  *    2.8141800  *     7     6     1
     9       C          1.38000000  *  115.1712800  *  177.6362960  *     1     2     3
    10       O          1.35522500  *  126.2593050  * -172.8744120  *     9     1     2
    11       O          1.22104700  *  120.5891550  *    7.5526260  *     9     1     2
    12       H          1.10316400  *  123.5247950  *  179.9547020  *     2     1     6
    13       H          1.10342700  *  121.1569470  * -179.2615170  *     3     2     1
    14       H          1.10287300  *  120.5256850  * -179.6191110  *     4     3     2
    15       H          1.10539800  *  113.8820360  *  178.2870920  *     5     4     3
    16       H          1.11826200  *  115.9373810  * -178.6498660  *     7     6     1
    17       H          0.96378900  *  111.6465030  *   26.9881060  *    10     9     1
 


          CARTESIAN COORDINATES 

    NO.       ATOM           X           Y           Z

     1         C          0.0000      0.0000      0.0000
     2         C          1.3572      0.0000      0.0000
     3         C          2.1171      1.1032      0.0000
     4         C          1.5214      2.2963     -0.0042
     5         C          0.1843      2.3342      0.0206
     6         C         -0.5984      1.2285      0.0375
     7         C         -1.9288      1.5318      0.1257
     8         O         -2.8868      0.8080      0.2365
     9         C         -0.5869     -1.2479     -0.0515
    10         O         -1.9092     -1.5063     -0.1978
    11         O          0.0918     -2.2583      0.0451
    12         H          1.9665     -0.9192     -0.0273
    13         H          3.2185      1.0378     -0.0122
    14         H          2.1211      3.2218     -0.0106
    15         H         -0.2340      3.3571      0.0455
    16         H         -2.1839      2.6205      0.1169
    17         H         -2.3607     -0.7953     -0.6664

 General Reference for PM7:
 "Optimization of Parameters for Semiempirical Methods VI: More Modifications to the 
 NDDO Approximations and Re-optimization of Parameters", J. J. P. Stewart, J. Mol. Mod., 1:32, 19 (2013)
 http://www.springerlink.com/openurl.asp?genre=article&id=doi:10.1007/s00894-012-1667-x

           Empirical Formula: C8 H6 O3  =    17 atoms



      MOLECULAR POINT GROUP   :   C1  


      RHF CALCULATION, NO. OF DOUBLY OCCUPIED LEVELS = 28


          Geometry optimization using EF

          DIAGONAL MATRIX USED AS START HESSIAN

 CYCLE:     1 TIME:   0.047 TIME LEFT:  2.00D  GRAD.:   515.551 HEAT: -49.52584
 CYCLE:     2 TIME:   0.078 TIME LEFT:  2.00D  GRAD.:   399.449 HEAT: -56.05551
 CYCLE:     3 TIME:   0.012 TIME LEFT:  2.00D  GRAD.:   193.745 HEAT: -68.95604
 CYCLE:     4 TIME:   0.020 TIME LEFT:  2.00D  GRAD.:    82.176 HEAT: -78.37819
 CYCLE:     5 TIME:   0.031 TIME LEFT:  2.00D  GRAD.:   101.740 HEAT: -79.60990
 CYCLE:     6 TIME:   0.016 TIME LEFT:  2.00D  GRAD.:    39.227 HEAT: -82.58966
 CYCLE:     7 TIME:   0.000 TIME LEFT:  2.00D  GRAD.:    86.439 HEAT: -83.96149
 CYCLE:     8 TIME:   0.012 TIME LEFT:  2.00D  GRAD.:   124.378 HEAT: -84.71901
 CYCLE:     9 TIME:   0.020 TIME LEFT:  2.00D  GRAD.:    74.048 HEAT: -85.65300
 CYCLE:    10 TIME:   0.016 TIME LEFT:  2.00D  GRAD.:    20.918 HEAT: -85.91361
 CYCLE:    11 TIME:   0.031 TIME LEFT:  2.00D  GRAD.:    54.637 HEAT: -86.05693
 CYCLE:    12 TIME:   0.000 TIME LEFT:  2.00D  GRAD.:     7.642 HEAT: -86.27371
 CYCLE:    13 TIME:   0.012 TIME LEFT:  2.00D  GRAD.:     9.930 HEAT: -86.35316
 CYCLE:    14 TIME:   0.020 TIME LEFT:  2.00D  GRAD.:     6.599 HEAT: -86.41936
 CYCLE:    15 TIME:   0.016 TIME LEFT:  2.00D  GRAD.:     3.274 HEAT: -86.46817
 CYCLE:    16 TIME:   0.012 TIME LEFT:  2.00D  GRAD.:     5.039 HEAT: -86.49160
 CYCLE:    17 TIME:   0.000 TIME LEFT:  2.00D  GRAD.:     2.622 HEAT: -86.50401
 CYCLE:    18 TIME:   0.031 TIME LEFT:  2.00D  GRAD.:     1.780 HEAT: -86.51637
 CYCLE:    19 TIME:   0.016 TIME LEFT:  2.00D  GRAD.:     2.457 HEAT: -86.52471
 CYCLE:    20 TIME:   0.000 TIME LEFT:  2.00D  GRAD.:     2.986 HEAT: -86.53483
 CYCLE:    21 TIME:   0.020 TIME LEFT:  2.00D  GRAD.:     1.143 HEAT: -86.54059
 CYCLE:    22 TIME:   0.031 TIME LEFT:  2.00D  GRAD.:     1.471 HEAT: -86.54708
 CYCLE:    23 TIME:   0.012 TIME LEFT:  2.00D  GRAD.:     1.852 HEAT: -86.54960
 CYCLE:    24 TIME:   0.000 TIME LEFT:  2.00D  GRAD.:     0.769 HEAT: -86.55199

     GRADIENT =  0.76941 IS LESS THAN CUTOFF =  1.00000



 -------------------------------------------------------------------------------

 2-carboxybenzaldehyde2.mop



     GEOMETRY OPTIMISED USING EIGENVECTOR FOLLOWING (EF).     
     SCF FIELD WAS ACHIEVED                                   


                              PM7 CALCULATION
                                                       MOPAC2016 (Version: 19.179W)
                                                       Mon Oct 21 16:01:15 2019
                                                       No. of days remaining = 250




          FINAL HEAT OF FORMATION =        -86.55199 KCAL/MOL =    -362.13355 KJ/MOL


          TOTAL ENERGY            =      -1948.78425 EV
          ELECTRONIC ENERGY       =      -9043.82610 EV  POINT GROUP:     Cs  
          CORE-CORE REPULSION     =       7095.04185 EV
          COSMO AREA              =        167.57 SQUARE ANGSTROMS
          COSMO VOLUME            =        166.44 CUBIC ANGSTROMS

          GRADIENT NORM           =          0.76941 = 0.18661 PER ATOM
          IONIZATION POTENTIAL    =         10.738281 EV
          HOMO LUMO ENERGIES (EV) =        -10.738 -1.654
          NO. OF FILLED LEVELS    =         28
          MOLECULAR WEIGHT        =        150.1336

          MOLECULAR DIMENSIONS (Angstroms)

            Atom       Atom       Distance
            H    14    O    10     6.32380
            H    16    H    12     5.61269
            O     8    H    13     0.08471


          SCF CALCULATIONS        =         29
 
          WALL-CLOCK TIME         =          0.496 SECONDS
          COMPUTATION TIME        =          0.764 SECONDS




  ATOM    CHEMICAL      BOND LENGTH      BOND ANGLE     TWIST ANGLE 
 NUMBER    SYMBOL       (ANGSTROMS)      (DEGREES)       (DEGREES) 
   (I)                     NA:I           NB:NA:I       NC:NB:NA:I       NA    NB    NC 
     1       C          0.00000000       0.0000000       0.0000000        0     0     0
     2       C          1.40446821  *    0.0000000       0.0000000        1     0     0
     3       C          1.39010397  *  121.8154097  *    0.0000000        2     1     0
     4       C          1.39250698  *  119.4614091  *   -0.3169205  *     3     2     1
     5       C          1.38894763  *  119.2884260  *    0.5658955  *     4     3     2
     6       C          1.39829507  *  118.6891288  *   -0.1844637  *     1     2     3
     7       C          1.48086951  *  128.5771854  * -179.3211879  *     6     1     2
     8       O          1.21204791  *  126.2451161  *   -2.1557010  *     7     6     1
     9       C          1.50671877  *  111.3510041  *  179.8243049  *     1     2     3
    10       O          1.33222696  *  122.1336985  *  178.0834036  *     9     1     2
    11       O          1.20932251  *  120.8195391  *   -1.4739955  *     9     1     2
    12       H          1.10022987  *  119.3176780  *  179.7309207  *     2     1     6
    13       H          1.09044156  *  120.1482248  *  179.9059430  *     3     2     1
    14       H          1.08938937  *  120.3577338  * -179.4969664  *     4     3     2
    15       H          1.09252030  *  118.4989313  *  179.6628555  *     5     4     3
    16       H          1.10471258  *  116.5283318  *  177.9382026  *     7     6     1
    17       H          1.00716486  *  115.8868563  *    2.9127725  *    10     9     1

                             CARTESIAN COORDINATES

   1    C        0.000000000     0.000000000     0.000000000
   2    C        1.404468214     0.000000000     0.000000000
   3    C        2.137309280     1.181242155     0.000000000
   4    C        1.468116347     2.402393874    -0.006706331
   5    C        0.079247326     2.416149858    -0.001309888
   6    C       -0.671261420     1.226630182     0.003949147
   7    C       -2.130061549     1.480924173     0.018483429
   8    O       -3.004081813     0.641583621    -0.007132214
   9    C       -0.548566873    -1.403302288    -0.004303180
  10    O       -1.856683969    -1.652885761     0.032662008
  11    O        0.192806528    -2.358261815    -0.033946482
  12    H        1.943197415    -0.959309440     0.001416731
  13    H        3.227288165     1.149517779     0.001547927
  14    H        2.027881305     3.336932649    -0.015053448
  15    H       -0.432508547     3.381399289    -0.001029114
  16    H       -2.446163669     2.538825996     0.054719836
  17    H       -2.458932218    -0.845759160     0.017670010


           Empirical Formula: C8 H6 O3  =    17 atoms



      MOLECULAR POINT GROUP   :   Cs  


                  EIGENVALUES  
 -32.25211 -31.61280 -31.02005 -29.92265 -27.66603 -27.05977 -23.98305 -22.44404
 -21.77400 -20.18143 -19.24029 -17.51135 -16.72760 -16.49338 -15.84060 -15.46924
 -15.26287 -15.11471 -14.85637 -13.96447 -13.85768 -13.36446 -12.85462 -11.66794
 -11.24597 -10.90215 -10.81652 -10.73828  -1.65414  -0.87348   0.18607   1.09561
   1.89488   2.01378   2.41847   2.91890   3.16713   3.78070   3.86704   4.00371
   4.09564   4.19442   4.34211   4.77470   4.89093   5.02850   5.19281   5.31422
   5.55893   6.26335


              NET ATOMIC CHARGES AND DIPOLE CONTRIBUTIONS

  ATOM NO.   TYPE          CHARGE      No. of ELECS.   s-Pop       p-Pop       
    1          C          -0.091325        4.0913     1.09173     2.99960
    2          C          -0.111500        4.1115     1.09637     3.01513
    3          C          -0.116274        4.1163     1.09009     3.02618
    4          C          -0.137049        4.1370     1.08610     3.05095
    5          C          -0.125873        4.1259     1.08898     3.03690
    6          C          -0.146168        4.1462     1.07586     3.07031
    7          C           0.360046        3.6400     1.14642     2.49354
    8          O          -0.441455        6.4415     1.87318     4.56827
    9          C           0.621118        3.3789     1.09681     2.28208
   10          O          -0.531304        6.5313     1.83240     4.69890
   11          O          -0.458078        6.4581     1.88091     4.57717
   12          H           0.193574        0.8064     0.80643
   13          H           0.161584        0.8384     0.83842
   14          H           0.158261        0.8417     0.84174
   15          H           0.154226        0.8458     0.84577
   16          H           0.131057        0.8689     0.86894
   17          H           0.379159        0.6208     0.62084
 DIPOLE           X         Y         Z       TOTAL
 POINT-CHG.     2.389     6.957     0.085     7.357
 HYBRID        -0.368    -0.020    -0.012     0.369
 SUM            2.021     6.937     0.073     7.226


          ATOMIC ORBITAL ELECTRON POPULATIONS

     Atom    s        px        py        pz   
    1  C   1.09173   1.00908   0.99294   0.99758
    2  C   1.09637   0.99385   1.07640   0.94487
    3  C   1.09009   1.08598   0.98498   0.95522
    4  C   1.08610   1.00772   1.06296   0.98027
    5  C   1.08898   1.01525   1.04541   0.97624
    6  C   1.07586   1.00285   0.99503   1.07243
    7  C   1.14642   0.87560   0.96710   0.65084
    8  O   1.87318   1.54957   1.61534   1.40337
    9  C   1.09681   0.75774   0.83331   0.69102
   10  O   1.83240   1.30903   1.55314   1.83673
   11  O   1.88091   1.60424   1.48172   1.49120
   12  H   0.80643
   13  H   0.83842
   14  H   0.84174
   15  H   0.84577
   16  H   0.86894
   17  H   0.62084

 **********************
 *                    *
 * JOB ENDED NORMALLY *
 *                    *
 **********************



 TOTAL JOB TIME:             0.52 SECONDS

 == MOPAC DONE ==
