 *******************************************************************************
 ** Site#: 32691        For non-commercial use only    Version 19.179W 32BITS **
 *******************************************************************************
 ** Cite this program as: MOPAC2016, Version: 19.179W, James J. P. Stewart,   **
 ** Stewart Computational Chemistry, web: HTTP://OpenMOPAC.net. Days left: 247**
 *******************************************************************************
 **                                                                           **
 **                                MOPAC2016                                  **
 **                                                                           **
 *******************************************************************************

                              PM7 CALCULATION RESULTS

 *******************************************************************************
 *  CALCULATION DONE:                                Thu Oct 24 14:34:42 2019  *
 *  T=         - A TIME OF 172800.0 SECONDS REQUESTED
 *  DUMP=N     - RESTART FILE WRITTEN EVERY  7200.000 SECONDS
 *******************************************************************************

 3,4-dimethoxybenzaldehyde.mop

  ATOM    CHEMICAL      BOND LENGTH      BOND ANGLE     TWIST ANGLE 
 NUMBER    SYMBOL       (ANGSTROMS)      (DEGREES)       (DEGREES) 
   (I)                     NA:I           NB:NA:I       NC:NB:NA:I       NA    NB    NC 
     1       C          0.00000000       0.0000000       0.0000000        0     0     0
     2       C          1.34967700  *    0.0000000       0.0000000        1     0     0
     3       C          1.34455300  *  122.9156610  *    0.0000000        2     1     0
     4       C          1.34195300  *  117.9614550  *    0.0007380  *     3     2     1
     5       C          1.34016200  *  119.8610050  *    0.0021720  *     4     3     2
     6       C          1.35584200  *  118.6388170  *   -0.0072220  *     1     2     3
     7       O          1.37745600  *  117.7459430  * -179.9986830  *     6     1     2
     8       O          1.37814800  *  124.0488730  * -179.9967570  *     1     2     3
     9       C          1.36131200  *  121.7548990  * -179.9988000  *     3     2     1
    10       O          1.21158400  *  125.9824970  *   -0.0006090  *     9     3     2
    11       C          1.40891600  *  119.5657020  *    0.0431470  *     8     1     2
    12       C          1.40895100  *  119.2946560  * -179.9496450  *     7     6     1
    13       H          1.09994100  *  118.9454770  *  179.9944860  *     2     1     6
    14       H          1.10363000  *  121.5158790  * -179.9989530  *     4     3     2
    15       H          1.10148000  *  116.4479340  *  179.9992710  *     5     4     3
    16       H          1.11614200  *  115.2077590  *  179.9995080  *     9     3     2
    17       H          1.11322700  *  107.6946050  *  179.9789310  *    11     8     1
    18       H          1.11288700  *  110.4435870  *  -62.3392650  *    11     8     1
    19       H          1.11288900  *  110.4423470  *   62.2958920  *    11     8     1
    20       H          1.11324700  *  107.7225070  *  179.9832280  *    12     7     6
    21       H          1.11287500  *  110.4189210  *  -62.2540860  *    12     7     6
    22       H          1.11287700  *  110.4174670  *   62.2191740  *    12     7     6
 


          CARTESIAN COORDINATES 

    NO.       ATOM           X           Y           Z

     1         C          0.0000      0.0000      0.0000
     2         C          1.3497      0.0000      0.0000
     3         C          2.0803      1.1287      0.0000
     4         C          1.4272      2.3010      0.0000
     5         C          0.0872      2.3183      0.0001
     6         C         -0.6498      1.1900      0.0001
     7         O         -2.0271      1.1685      0.0002
     8         O         -0.7716     -1.1419      0.0001
     9         C          3.4413      1.1011     -0.0000
    10         O          4.1332      0.1065     -0.0000
    11         C         -0.1455     -2.4040      0.0011
    12         C         -2.7356      2.3864     -0.0008
    13         H          1.8820     -0.9625     -0.0000
    14         H          1.9683      3.2629     -0.0000
    15         H         -0.3907      3.3107      0.0001
    16         H          3.9371      2.1012     -0.0000
    17         H         -0.9452     -3.1785      0.0013
    18         H          0.4615     -2.5375     -0.9221
    19         H          0.4610     -2.5363      0.9248
    20         H         -3.8226      2.1461     -0.0009
    21         H         -2.5111      2.9668      0.9218
    22         H         -2.5106      2.9657     -0.9239

 General Reference for PM7:
 "Optimization of Parameters for Semiempirical Methods VI: More Modifications to the 
 NDDO Approximations and Re-optimization of Parameters", J. J. P. Stewart, J. Mol. Mod., 1:32, 19 (2013)
 http://www.springerlink.com/openurl.asp?genre=article&id=doi:10.1007/s00894-012-1667-x

           Empirical Formula: C9 H10 O3  =    22 atoms



      MOLECULAR POINT GROUP   :   Cs  


      RHF CALCULATION, NO. OF DOUBLY OCCUPIED LEVELS = 32


          Geometry optimization using EF

          DIAGONAL MATRIX USED AS START HESSIAN

 CYCLE:     1 TIME:   0.062 TIME LEFT:  2.00D  GRAD.:   459.560 HEAT: -55.43064
 CYCLE:     2 TIME:   0.125 TIME LEFT:  2.00D  GRAD.:   416.428 HEAT: -59.77259
 CYCLE:     3 TIME:   0.016 TIME LEFT:  2.00D  GRAD.:   171.427 HEAT: -72.22596
 CYCLE:     4 TIME:   0.094 TIME LEFT:  2.00D  GRAD.:    50.832 HEAT: -79.04827
 CYCLE:     5 TIME:   0.031 TIME LEFT:  2.00D  GRAD.:    48.866 HEAT: -79.88047
 CYCLE:     6 TIME:   0.027 TIME LEFT:  2.00D  GRAD.:    32.563 HEAT: -81.06380
 CYCLE:     7 TIME:   0.020 TIME LEFT:  2.00D  GRAD.:    34.358 HEAT: -81.47364
 CYCLE:     8 TIME:   0.047 TIME LEFT:  2.00D  GRAD.:    14.755 HEAT: -81.60946
 CYCLE:     9 TIME:   0.012 TIME LEFT:  2.00D  GRAD.:    39.695 HEAT: -81.66154
 CYCLE:    10 TIME:   0.020 TIME LEFT:  2.00D  GRAD.:    18.192 HEAT: -81.73296
 CYCLE:    11 TIME:   0.027 TIME LEFT:  2.00D  GRAD.:     5.055 HEAT: -81.74695
 CYCLE:    12 TIME:   0.020 TIME LEFT:  2.00D  GRAD.:     2.120 HEAT: -81.75466
 CYCLE:    13 TIME:   0.027 TIME LEFT:  2.00D  GRAD.:     0.930 HEAT: -81.75743

     GRADIENT =  0.93000 IS LESS THAN CUTOFF =  1.00000



 -------------------------------------------------------------------------------

 3,4-dimethoxybenzaldehyde.mop



     GEOMETRY OPTIMISED USING EIGENVECTOR FOLLOWING (EF).     
     SCF FIELD WAS ACHIEVED                                   


                              PM7 CALCULATION
                                                       MOPAC2016 (Version: 19.179W)
                                                       Thu Oct 24 14:34:42 2019
                                                       No. of days remaining = 247




          FINAL HEAT OF FORMATION =        -81.75744 KCAL/MOL =    -342.07312 KJ/MOL


          TOTAL ENERGY            =      -2125.15160 EV
          ELECTRONIC ENERGY       =     -10885.16335 EV  POINT GROUP:     Cs  
          CORE-CORE REPULSION     =       8760.01175 EV
          COSMO AREA              =        199.76 SQUARE ANGSTROMS
          COSMO VOLUME            =        199.76 CUBIC ANGSTROMS

          GRADIENT NORM           =          0.93000 = 0.19828 PER ATOM
          IONIZATION POTENTIAL    =          8.740944 EV
          HOMO LUMO ENERGIES (EV) =         -8.741 -0.512
          NO. OF FILLED LEVELS    =         32
          MOLECULAR WEIGHT        =        166.1762

          MOLECULAR DIMENSIONS (Angstroms)

            Atom       Atom       Distance
            H    20    O    10     8.21955
            H    17    H    14     6.89864
            H    22    H    21     1.81145


          SCF CALCULATIONS        =         18
 
          WALL-CLOCK TIME         =          0.543 SECONDS
          COMPUTATION TIME        =          0.780 SECONDS




  ATOM    CHEMICAL      BOND LENGTH      BOND ANGLE     TWIST ANGLE 
 NUMBER    SYMBOL       (ANGSTROMS)      (DEGREES)       (DEGREES) 
   (I)                     NA:I           NB:NA:I       NC:NB:NA:I       NA    NB    NC 
     1       C          0.00000000       0.0000000       0.0000000        0     0     0
     2       C          1.38260516  *    0.0000000       0.0000000        1     0     0
     3       C          1.40356734  *  119.6874229  *    0.0000000        2     1     0
     4       C          1.38828471  *  120.6134519  *   -0.0225117  *     3     2     1
     5       C          1.39849564  *  120.2451302  *    0.0001719  *     4     3     2
     6       C          1.42558353  *  119.7036348  *    0.0145935  *     1     2     3
     7       O          1.35507600  *  113.7337829  * -179.9903484  *     6     1     2
     8       O          1.36002511  *  126.3541825  * -179.9895435  *     1     2     3
     9       C          1.47631295  *  118.8870965  *  179.9755601  *     3     2     1
    10       O          1.20926920  *  122.1684290  *   -0.0025746  *     9     3     2
    11       C          1.42262712  *  116.2273638  *    0.0191926  *     8     1     2
    12       C          1.42288248  *  116.8213585  * -179.9456796  *     7     6     1
    13       H          1.09241525  *  121.7462047  * -179.9888678  *     2     1     6
    14       H          1.08975957  *  120.5722251  * -179.9984132  *     4     3     2
    15       H          1.08599198  *  119.3892525  * -179.9985786  *     5     4     3
    16       H          1.09863343  *  117.6240238  * -179.9968843  *     9     3     2
    17       H          1.09913747  *  101.7983626  *  179.9693008  *    11     8     1
    18       H          1.09460478  *  111.0777784  *  -62.4465376  *    11     8     1
    19       H          1.09462140  *  111.0872476  *   62.3774592  *    11     8     1
    20       H          1.09975650  *  101.7847749  *  179.9882955  *    12     7     6
    21       H          1.09420315  *  111.0614128  *  -62.5079094  *    12     7     6
    22       H          1.09418356  *  111.0576039  *   62.4895898  *    12     7     6

                             CARTESIAN COORDINATES

   1    C        0.000000000     0.000000000     0.000000000
   2    C        1.382605161     0.000000000     0.000000000
   3    C        2.077747124     1.219335445     0.000000000
   4    C        1.389927923     2.425253747    -0.000469437
   5    C       -0.008504137     2.438580583    -0.000945736
   6    C       -0.706396274     1.238261931    -0.000315392
   7    O       -2.054123354     1.097327119    -0.000070534
   8    O       -0.806188950    -1.095320785     0.000199897
   9    C        3.553915952     1.198714546     0.000551377
  10    O        4.183382027     0.166191325     0.001048764
  11    C       -0.151089555    -2.358139957     0.000857845
  12    C       -2.824727099     2.293471829    -0.001566151
  13    H        1.957387745    -0.928975816     0.000056122
  14    H        1.930332018     3.371583149    -0.000495115
  15    H       -0.532402870     3.389847398    -0.001333191
  16    H        4.076863258     2.164903719     0.000593979
  17    H       -1.002656158    -3.053076733     0.001469406
  18    H        0.449816281    -2.490361048    -0.904453920
  19    H        0.450356744    -2.489334304     0.905980159
  20    H       -3.851393916     1.899239047    -0.001232037
  21    H       -2.641388524     2.880477508     0.903470774
  22    H       -2.641187881     2.878252673    -0.907977971


           Empirical Formula: C9 H10 O3  =    22 atoms



      MOLECULAR POINT GROUP   :   Cs  


                  EIGENVALUES  
 -31.30088 -30.91721 -30.55749 -30.15210 -26.62488 -25.96666 -25.13519 -24.59612
 -22.38358 -21.12641 -20.09903 -18.53941 -17.31025 -16.85342 -16.29770 -15.72825
 -15.67405 -15.20344 -15.04003 -14.82653 -14.43870 -13.73399 -13.66670 -13.48417
 -12.92976 -12.35727 -12.20559 -11.86395 -11.73970 -10.14299  -9.80287  -8.74094
  -0.51175   0.02242   1.19898   1.38762   1.93689   2.40451   3.43921   3.66119
   4.03330   4.27414   4.44173   4.63117   4.80595   4.91924   5.08819   5.14153
   5.24569   5.35934   5.37984   5.44971   5.55738   5.67107   5.83672   5.93357
   5.96587   6.16594


              NET ATOMIC CHARGES AND DIPOLE CONTRIBUTIONS

  ATOM NO.   TYPE          CHARGE      No. of ELECS.   s-Pop       p-Pop       
    1          C           0.121982        3.8780     1.07882     2.79920
    2          C          -0.177074        4.1771     1.08228     3.09480
    3          C          -0.179211        4.1792     1.07029     3.10892
    4          C          -0.096037        4.0960     1.08143     3.01460
    5          C          -0.278506        4.2785     1.07316     3.20534
    6          C           0.192886        3.8071     1.08742     2.71969
    7          O          -0.265782        6.2658     1.86922     4.39656
    8          O          -0.274670        6.2747     1.87079     4.40388
    9          C           0.349340        3.6507     1.13385     2.51681
   10          O          -0.441487        6.4415     1.87923     4.56226
   11          C          -0.214195        4.2142     1.08846     3.12573
   12          C          -0.216729        4.2167     1.08877     3.12796
   13          H           0.186648        0.8134     0.81335
   14          H           0.152685        0.8473     0.84731
   15          H           0.166556        0.8334     0.83344
   16          H           0.108780        0.8912     0.89122
   17          H           0.156370        0.8436     0.84363
   18          H           0.138065        0.8619     0.86194
   19          H           0.138078        0.8619     0.86192
   20          H           0.159083        0.8409     0.84092
   21          H           0.136607        0.8634     0.86339
   22          H           0.136611        0.8634     0.86339
 DIPOLE           X         Y         Z       TOTAL
 POINT-CHG.    -2.065     2.576    -0.002     3.301
 HYBRID        -0.433    -0.373     0.000     0.572
 SUM           -2.498     2.203    -0.002     3.331


          ATOMIC ORBITAL ELECTRON POPULATIONS

     Atom    s        px        py        pz   
    1  C   1.07882   0.93181   0.85839   1.00900
    2  C   1.08228   0.99178   1.07594   1.02707
    3  C   1.07029   1.01822   0.98861   1.10209
    4  C   1.08143   0.99792   1.04831   0.96837
    5  C   1.07316   1.02009   1.05691   1.12834
    6  C   1.08742   0.81920   0.96339   0.93710
    7  O   1.86922   1.20806   1.31835   1.87015
    8  O   1.87079   1.32737   1.18950   1.88702
    9  C   1.13385   0.91016   0.92752   0.67913
   10  O   1.87923   1.73269   1.45711   1.37246
   11  C   1.08846   1.11558   0.86220   1.14796
   12  C   1.08877   1.03227   0.94984   1.14586
   13  H   0.81335
   14  H   0.84731
   15  H   0.83344
   16  H   0.89122
   17  H   0.84363
   18  H   0.86194
   19  H   0.86192
   20  H   0.84092
   21  H   0.86339
   22  H   0.86339

 **********************
 *                    *
 * JOB ENDED NORMALLY *
 *                    *
 **********************



 TOTAL JOB TIME:             0.54 SECONDS

 == MOPAC DONE ==
