 *******************************************************************************
 ** Site#: 32691        For non-commercial use only    Version 19.179W 32BITS **
 *******************************************************************************
 ** Cite this program as: MOPAC2016, Version: 19.179W, James J. P. Stewart,   **
 ** Stewart Computational Chemistry, web: HTTP://OpenMOPAC.net. Days left: 253**
 *******************************************************************************
 **                                                                           **
 **                                MOPAC2016                                  **
 **                                                                           **
 *******************************************************************************

                              PM7 CALCULATION RESULTS

 *******************************************************************************
 *  CALCULATION DONE:                                Fri Oct 18 15:35:49 2019  *
 *  T=         - A TIME OF 172800.0 SECONDS REQUESTED
 *  DUMP=N     - RESTART FILE WRITTEN EVERY  7200.000 SECONDS
 *******************************************************************************

 3-ethoxy-4-hydroxybenzaldehyde.mop

  ATOM    CHEMICAL      BOND LENGTH      BOND ANGLE     TWIST ANGLE 
 NUMBER    SYMBOL       (ANGSTROMS)      (DEGREES)       (DEGREES) 
   (I)                     NA:I           NB:NA:I       NC:NB:NA:I       NA    NB    NC 
     1       C          0.00000000       0.0000000       0.0000000        0     0     0
     2       C          1.33975300  *    0.0000000       0.0000000        1     0     0
     3       C          1.34283500  *  121.5417740  *    0.0000000        2     1     0
     4       C          1.35022700  *  120.0032860  *   -0.0025420  *     3     2     1
     5       C          1.34947400  *  117.5849880  *    0.0055000  *     4     3     2
     6       C          1.34333000  *  119.5748520  *   -0.0007200  *     1     2     3
     7       O          1.37555400  *  117.2596310  *  179.9963870  *     4     3     2
     8       C          1.40302200  *  119.7401200  * -179.9446050  *     7     4     3
     9       C          1.52678000  *  108.5862930  *  179.9742920  *     8     7     4
    10       O          1.36210800  *  120.2575170  *  179.9985770  *     3     2     1
    11       C          1.36155600  *  120.8464690  * -179.9986150  *     6     1     2
    12       O          1.21169900  *  125.9117690  *   -0.0002090  *    11     6     1
    13       H          1.10251000  *  118.2387240  * -179.9993270  *     1     2     3
    14       H          1.10333500  *  119.3617100  *  179.9983710  *     2     1     6
    15       H          1.10108100  *  119.0397080  *  179.9957540  *     5     4     3
    16       H          1.11518300  *  109.5072270  *  -60.8520670  *     8     7     4
    17       H          1.11518400  *  109.5070050  *   60.7997720  *     8     7     4
    18       H          1.11448600  *  110.9626780  *  179.9997850  *     9     8     7
    19       H          1.11434200  *  111.1528880  *  -60.1060270  *     9     8     7
    20       H          1.11434200  *  111.1525160  *   60.1052220  *     9     8     7
    21       H          0.97102300  *  109.1560020  *  179.9990030  *    10     3     2
    22       H          1.11608100  *  115.3959870  *  179.9998170  *    11     6     1
 


          CARTESIAN COORDINATES 

    NO.       ATOM           X           Y           Z

     1         C          0.0000      0.0000      0.0000
     2         C          1.3398      0.0000      0.0000
     3         C          2.0422      1.1444      0.0000
     4         C          1.3989      2.3316     -0.0001
     5         C          0.0496      2.3111      0.0000
     6         C         -0.6630      1.1683      0.0000
     7         O          2.1737      3.4681      0.0000
     8         C          1.5593      4.7294      0.0012
     9         C          2.6471      5.8007      0.0016
    10         O          3.4040      1.1139      0.0000
    11         C         -2.0242      1.1985      0.0000
    12         O         -2.7565      0.2332      0.0001
    13         H         -0.5216     -0.9713      0.0000
    14         H          1.8807     -0.9616      0.0000
    15         H         -0.4995      3.2655      0.0000
    16         H          0.9353      4.8404     -0.9164
    17         H          0.9358      4.8391      0.9192
    18         H          2.2010      6.8220      0.0025
    19         H          3.2973      5.7131      0.9024
    20         H          3.2968      5.7144     -0.8996
    21         H          3.7431      2.0238      0.0000
    22         H         -2.4804      2.2171      0.0001

 General Reference for PM7:
 "Optimization of Parameters for Semiempirical Methods VI: More Modifications to the 
 NDDO Approximations and Re-optimization of Parameters", J. J. P. Stewart, J. Mol. Mod., 1:32, 19 (2013)
 http://www.springerlink.com/openurl.asp?genre=article&id=doi:10.1007/s00894-012-1667-x

           Empirical Formula: C9 H10 O3  =    22 atoms



      MOLECULAR POINT GROUP   :   Cs  


      RHF CALCULATION, NO. OF DOUBLY OCCUPIED LEVELS = 32


          Geometry optimization using EF

          DIAGONAL MATRIX USED AS START HESSIAN

 CYCLE:     1 TIME:   0.047 TIME LEFT:  2.00D  GRAD.:   536.632 HEAT: -69.85738
 CYCLE:     2 TIME:   0.062 TIME LEFT:  2.00D  GRAD.:   388.211 HEAT: -75.24924
 CYCLE:     3 TIME:   0.016 TIME LEFT:  2.00D  GRAD.:   180.904 HEAT: -87.09752
 CYCLE:     4 TIME:   0.027 TIME LEFT:  2.00D  GRAD.:    68.409 HEAT: -94.54618
 CYCLE:     5 TIME:   0.020 TIME LEFT:  2.00D  GRAD.:    60.176 HEAT: -95.40350
 CYCLE:     6 TIME:   0.016 TIME LEFT:  2.00D  GRAD.:    62.640 HEAT: -95.86213
 CYCLE:     7 TIME:   0.012 TIME LEFT:  2.00D  GRAD.:    56.319 HEAT: -96.17767
 CYCLE:     8 TIME:   0.020 TIME LEFT:  2.00D  GRAD.:    25.756 HEAT: -96.19819
 CYCLE:     9 TIME:   0.012 TIME LEFT:  2.00D  GRAD.:    41.516 HEAT: -96.30036
 CYCLE:    10 TIME:   0.020 TIME LEFT:  2.00D  GRAD.:     6.833 HEAT: -96.39054
 CYCLE:    11 TIME:   0.027 TIME LEFT:  2.00D  GRAD.:     2.369 HEAT: -96.40518
 CYCLE:    12 TIME:   0.020 TIME LEFT:  2.00D  GRAD.:     2.780 HEAT: -96.41295
 CYCLE:    13 TIME:   0.012 TIME LEFT:  2.00D  GRAD.:     1.064 HEAT: -96.41607
 CYCLE:    14 TIME:   0.016 TIME LEFT:  2.00D  GRAD.:     1.244 HEAT: -96.41734
 CYCLE:    15 TIME:   0.031 TIME LEFT:  2.00D  GRAD.:     0.897 HEAT: -96.41903

     GRADIENT =  0.89665 IS LESS THAN CUTOFF =  1.00000



 -------------------------------------------------------------------------------

 3-ethoxy-4-hydroxybenzaldehyde.mop



     GEOMETRY OPTIMISED USING EIGENVECTOR FOLLOWING (EF).     
     SCF FIELD WAS ACHIEVED                                   


                              PM7 CALCULATION
                                                       MOPAC2016 (Version: 19.179W)
                                                       Fri Oct 18 15:35:50 2019
                                                       No. of days remaining = 253




          FINAL HEAT OF FORMATION =        -96.41903 KCAL/MOL =    -403.41723 KJ/MOL


          TOTAL ENERGY            =      -2125.78403 EV
          ELECTRONIC ENERGY       =     -10765.32239 EV  POINT GROUP:     Cs  
          CORE-CORE REPULSION     =       8639.53837 EV
          COSMO AREA              =        199.99 SQUARE ANGSTROMS
          COSMO VOLUME            =        199.30 CUBIC ANGSTROMS

          GRADIENT NORM           =          0.89665 = 0.19117 PER ATOM
          IONIZATION POTENTIAL    =          9.029101 EV
          HOMO LUMO ENERGIES (EV) =         -9.029 -0.629
          NO. OF FILLED LEVELS    =         32
          MOLECULAR WEIGHT        =        166.1762

          MOLECULAR DIMENSIONS (Angstroms)

            Atom       Atom       Distance
            H    18    O    12     8.44560
            H    22    H    14     5.57393
            H    20    H    17     1.86340


          SCF CALCULATIONS        =         18
 
          WALL-CLOCK TIME         =          0.434 SECONDS
          COMPUTATION TIME        =          0.749 SECONDS




  ATOM    CHEMICAL      BOND LENGTH      BOND ANGLE     TWIST ANGLE 
 NUMBER    SYMBOL       (ANGSTROMS)      (DEGREES)       (DEGREES) 
   (I)                     NA:I           NB:NA:I       NC:NB:NA:I       NA    NB    NC 
     1       C          0.00000000       0.0000000       0.0000000        0     0     0
     2       C          1.39570433  *    0.0000000       0.0000000        1     0     0
     3       C          1.38984872  *  118.8025201  *    0.0000000        2     1     0
     4       C          1.41880987  *  120.8075242  *   -0.0858894  *     3     2     1
     5       C          1.38329872  *  120.0131097  *    0.1343469  *     4     3     2
     6       C          1.39182367  *  120.4883653  *   -0.0214168  *     1     2     3
     7       O          1.36096618  *  112.9581612  * -179.4890576  *     4     3     2
     8       C          1.43287685  *  117.0262174  * -177.9992301  *     7     4     3
     9       C          1.52120526  *  103.1776551  *  179.8753294  *     8     7     4
    10       O          1.35261654  *  116.7548318  *  179.8192279  *     3     2     1
    11       C          1.47649821  *  119.5388710  * -179.9473342  *     6     1     2
    12       O          1.20878385  *  122.0425333  *   -0.0141308  *    11     6     1
    13       H          1.09461030  *  119.9942907  * -179.9936364  *     1     2     3
    14       H          1.08878670  *  121.4169727  *  179.9404344  *     2     1     6
    15       H          1.08638147  *  121.3389989  *  179.9798923  *     5     4     3
    16       H          1.10429810  *  109.0446717  *  -60.4716631  *     8     7     4
    17       H          1.10425673  *  109.0162743  *   60.1658375  *     8     7     4
    18       H          1.09604082  *  111.1093295  * -179.9807121  *     9     8     7
    19       H          1.09840447  *  111.4054948  *  -59.6905280  *     9     8     7
    20       H          1.09848138  *  111.3776765  *   59.7480694  *     9     8     7
    21       H          0.99412792  *  111.5518901  * -179.4542402  *    10     3     2
    22       H          1.09828595  *  117.7991629  *  179.9828496  *    11     6     1

                             CARTESIAN COORDINATES

   1    C        0.000000000     0.000000000     0.000000000
   2    C        1.395704334     0.000000000     0.000000000
   3    C        2.065322629     1.217904263     0.000000000
   4    C        1.347572669     2.441772360    -0.001826753
   5    C       -0.035695791     2.432677229    -0.000828616
   6    C       -0.706160370     1.199379195     0.000448321
   7    O        2.159975133     3.533611383    -0.012723257
   8    C        1.525525149     4.817688635     0.029168059
   9    C        2.699146076     5.785259580     0.007126194
  10    O        3.417070161     1.169576419     0.003810706
  11    C       -2.182455373     1.174911917     0.001619956
  12    O       -2.806706577     0.139794191     0.001957540
  13    H       -0.547210687    -0.948014854     0.000105291
  14    H        1.963247962    -0.929166466     0.000618659
  15    H       -0.606812904     3.356824880    -0.001861704
  16    H        0.873796486     4.926635479    -0.855622670
  17    H        0.932002108     4.895664661     0.957086738
  18    H        2.354016519     6.825145110     0.035921198
  19    H        3.364986457     5.627458006     0.866339570
  20    H        3.306852109     5.657022219    -0.898914586
  21    H        3.815036155     2.080532376     0.012333480
  22    H       -2.710695794     2.137820897     0.002240047


           Empirical Formula: C9 H10 O3  =    22 atoms



      MOLECULAR POINT GROUP   :   Cs  


                  EIGENVALUES  
 -31.48261 -31.02431 -30.49616 -30.23151 -27.53302 -26.55987 -25.63470 -22.96357
 -22.62996 -20.94578 -20.22605 -18.82524 -17.56697 -16.89970 -16.76889 -16.43550
 -15.21779 -15.08821 -14.79812 -14.45236 -14.19247 -14.10301 -13.85089 -13.54597
 -13.39104 -12.70363 -12.49122 -12.28342 -11.83597 -10.21147  -9.99002  -9.02910
  -0.62882  -0.09152   1.10871   1.19272   2.29467   2.44256   3.16729   3.46847
   3.59643   4.14400   4.32608   4.38505   4.57962   4.78589   4.80755   5.07542
   5.11238   5.25957   5.29465   5.38950   5.39704   5.50922   5.59133   6.01159
   6.08619   6.39279


              NET ATOMIC CHARGES AND DIPOLE CONTRIBUTIONS

  ATOM NO.   TYPE          CHARGE      No. of ELECS.   s-Pop       p-Pop       
    1          C          -0.058672        4.0587     1.08817     2.97050
    2          C          -0.233739        4.2337     1.07676     3.15698
    3          C           0.243518        3.7565     1.07934     2.67714
    4          C           0.091779        3.9082     1.07641     2.83181
    5          C          -0.195163        4.1952     1.07768     3.11749
    6          C          -0.184913        4.1849     1.07007     3.11484
    7          O          -0.369145        6.3691     1.86463     4.50452
    8          C          -0.004709        4.0047     1.09099     2.91372
    9          C          -0.461685        4.4617     1.05443     3.40726
   10          O          -0.444892        6.4449     1.84019     4.60470
   11          C           0.346758        3.6532     1.13357     2.51967
   12          O          -0.437753        6.4378     1.87921     4.55855
   13          H           0.177591        0.8224     0.82241
   14          H           0.183585        0.8164     0.81641
   15          H           0.160097        0.8399     0.83990
   16          H           0.127387        0.8726     0.87261
   17          H           0.127576        0.8724     0.87242
   18          H           0.157514        0.8425     0.84249
   19          H           0.162578        0.8374     0.83742
   20          H           0.162951        0.8370     0.83705
   21          H           0.341790        0.6582     0.65821
   22          H           0.107548        0.8925     0.89245
 DIPOLE           X         Y         Z       TOTAL
 POINT-CHG.     0.981     4.589     0.080     4.693
 HYBRID         0.766     0.349    -0.009     0.842
 SUM            1.747     4.938     0.071     5.238


          ATOMIC ORBITAL ELECTRON POPULATIONS

     Atom    s        px        py        pz   
    1  C   1.08817   0.98883   1.06000   0.92167
    2  C   1.07676   1.01306   1.05509   1.08883
    3  C   1.07934   0.78786   0.95729   0.93199
    4  C   1.07641   0.93623   0.85781   1.03778
    5  C   1.07768   1.00109   1.06367   1.05273
    6  C   1.07007   1.02005   0.98564   1.10916
    7  O   1.86463   1.38285   1.21923   1.90244
    8  C   1.09099   1.00407   0.78248   1.12717
    9  C   1.05443   1.10012   1.10817   1.19897
   10  O   1.84019   1.26953   1.44179   1.89339
   11  C   1.13357   0.91043   0.92749   0.68176
   12  O   1.87921   1.73515   1.45338   1.37002
   13  H   0.82241
   14  H   0.81641
   15  H   0.83990
   16  H   0.87261
   17  H   0.87242
   18  H   0.84249
   19  H   0.83742
   20  H   0.83705
   21  H   0.65821
   22  H   0.89245

 **********************
 *                    *
 * JOB ENDED NORMALLY *
 *                    *
 **********************



 TOTAL JOB TIME:             0.43 SECONDS

 == MOPAC DONE ==
