 *******************************************************************************
 ** Site#: 32691        For non-commercial use only    Version 19.179W 32BITS **
 *******************************************************************************
 ** Cite this program as: MOPAC2016, Version: 19.179W, James J. P. Stewart,   **
 ** Stewart Computational Chemistry, web: HTTP://OpenMOPAC.net. Days left: 250**
 *******************************************************************************
 **                                                                           **
 **                                MOPAC2016                                  **
 **                                                                           **
 *******************************************************************************

                              PM7 CALCULATION RESULTS

 *******************************************************************************
 *  CALCULATION DONE:                                Mon Oct 21 15:44:05 2019  *
 *  T=         - A TIME OF 172800.0 SECONDS REQUESTED
 *  DUMP=N     - RESTART FILE WRITTEN EVERY  7200.000 SECONDS
 *******************************************************************************

 3-ethoxy-4-hydroxybenzaldehyde2.mop

  ATOM    CHEMICAL      BOND LENGTH      BOND ANGLE     TWIST ANGLE 
 NUMBER    SYMBOL       (ANGSTROMS)      (DEGREES)       (DEGREES) 
   (I)                     NA:I           NB:NA:I       NC:NB:NA:I       NA    NB    NC 
     1       C          0.00000000       0.0000000       0.0000000        0     0     0
     2       C          1.33958300  *    0.0000000       0.0000000        1     0     0
     3       C          1.34280900  *  121.4723510  *    0.0000000        2     1     0
     4       C          1.35022400  *  120.0241940  *   -0.0018480  *     3     2     1
     5       C          1.34944100  *  117.6227590  *    0.0040010  *     4     3     2
     6       C          1.34355000  *  119.6243890  *   -0.0005440  *     1     2     3
     7       O          1.37552600  *  117.2716630  *  179.9964660  *     4     3     2
     8       C          1.40297400  *  119.7733160  * -179.9546400  *     7     4     3
     9       C          1.52679700  *  108.5659200  *  179.9790060  *     8     7     4
    10       O          1.36195900  *  120.2455460  *  179.9990600  *     3     2     1
    11       C          1.36149800  *  120.0139970  * -179.9986950  *     6     1     2
    12       O          1.21154100  *  125.8766350  *  179.9991190  *    11     6     1
    13       H          1.10321200  *  118.5192270  * -179.9992090  *     1     2     3
    14       H          1.10322000  *  119.3785180  *  179.9985410  *     2     1     6
    15       H          1.10010700  *  118.7515470  *  179.9969840  *     5     4     3
    16       H          1.11518900  *  109.5131650  *  -60.8690410  *     8     7     4
    17       H          1.11519000  *  109.5127240  *   60.8268480  *     8     7     4
    18       H          1.11446200  *  110.9756630  * -179.9996330  *     9     8     7
    19       H          1.11437100  *  111.1461210  *  -60.1008830  *     9     8     7
    20       H          1.11437100  *  111.1458510  *   60.1011370  *     9     8     7
    21       H          0.97099500  *  109.1739710  *  179.9996900  *    10     3     2
    22       H          1.11612900  *  115.2753470  *   -0.0007770  *    11     6     1
 


          CARTESIAN COORDINATES 

    NO.       ATOM           X           Y           Z

     1         C          0.0000      0.0000      0.0000
     2         C          1.3396      0.0000      0.0000
     3         C          2.0406      1.1453      0.0000
     4         C          1.3963      2.3318     -0.0000
     5         C          0.0470      2.3111      0.0000
     6         C         -0.6641      1.1679      0.0000
     7         O          2.1700      3.4692      0.0000
     8         C          1.5549      4.7301      0.0010
     9         C          2.6426      5.8016      0.0014
    10         O          3.4023      1.1161      0.0000
    11         C         -2.0256      1.1772      0.0000
    12         O         -2.7289      2.1637      0.0001
    13         H         -0.5267     -0.9693      0.0000
    14         H          1.8808     -0.9613      0.0000
    15         H         -0.4969      3.2673      0.0000
    16         H          0.9312      4.8410     -0.9168
    17         H          0.9316      4.8399      0.9192
    18         H          2.1966      6.8229      0.0021
    19         H          3.2928      5.7140      0.9022
    20         H          3.2924      5.7151     -0.8999
    21         H          3.7408      2.0262      0.0000
    22         H         -2.5090      0.1712      0.0000

 General Reference for PM7:
 "Optimization of Parameters for Semiempirical Methods VI: More Modifications to the 
 NDDO Approximations and Re-optimization of Parameters", J. J. P. Stewart, J. Mol. Mod., 1:32, 19 (2013)
 http://www.springerlink.com/openurl.asp?genre=article&id=doi:10.1007/s00894-012-1667-x

           Empirical Formula: C9 H10 O3  =    22 atoms



      MOLECULAR POINT GROUP   :   Cs  


      RHF CALCULATION, NO. OF DOUBLY OCCUPIED LEVELS = 32


          Geometry optimization using EF

          DIAGONAL MATRIX USED AS START HESSIAN

 CYCLE:     1 TIME:   0.031 TIME LEFT:  2.00D  GRAD.:   517.114 HEAT: -70.37556
 CYCLE:     2 TIME:   0.062 TIME LEFT:  2.00D  GRAD.:   399.145 HEAT: -75.36871
 CYCLE:     3 TIME:   0.031 TIME LEFT:  2.00D  GRAD.:   181.612 HEAT: -87.51633
 CYCLE:     4 TIME:   0.012 TIME LEFT:  2.00D  GRAD.:    52.661 HEAT: -95.00659
 CYCLE:     5 TIME:   0.035 TIME LEFT:  2.00D  GRAD.:    51.441 HEAT: -95.82399
 CYCLE:     6 TIME:   0.012 TIME LEFT:  2.00D  GRAD.:    52.820 HEAT: -96.24661
 CYCLE:     7 TIME:   0.020 TIME LEFT:  2.00D  GRAD.:    45.887 HEAT: -96.56752
 CYCLE:     8 TIME:   0.031 TIME LEFT:  2.00D  GRAD.:    13.097 HEAT: -96.71476
 CYCLE:     9 TIME:   0.016 TIME LEFT:  2.00D  GRAD.:    28.228 HEAT: -96.74274
 CYCLE:    10 TIME:   0.012 TIME LEFT:  2.00D  GRAD.:     4.282 HEAT: -96.79183
 CYCLE:    11 TIME:   0.020 TIME LEFT:  2.00D  GRAD.:     2.373 HEAT: -96.80415
 CYCLE:    12 TIME:   0.027 TIME LEFT:  2.00D  GRAD.:     3.144 HEAT: -96.80933
 CYCLE:    13 TIME:   0.020 TIME LEFT:  2.00D  GRAD.:     1.876 HEAT: -96.81140
 CYCLE:    14 TIME:   0.012 TIME LEFT:  2.00D  GRAD.:     0.947 HEAT: -96.81306

     GRADIENT =  0.94681 IS LESS THAN CUTOFF =  1.00000



 -------------------------------------------------------------------------------

 3-ethoxy-4-hydroxybenzaldehyde2.mop



     GEOMETRY OPTIMISED USING EIGENVECTOR FOLLOWING (EF).     
     SCF FIELD WAS ACHIEVED                                   


                              PM7 CALCULATION
                                                       MOPAC2016 (Version: 19.179W)
                                                       Mon Oct 21 15:44:05 2019
                                                       No. of days remaining = 250




          FINAL HEAT OF FORMATION =        -96.81307 KCAL/MOL =    -405.06588 KJ/MOL


          TOTAL ENERGY            =      -2125.79994 EV
          ELECTRONIC ENERGY       =     -10805.34372 EV  POINT GROUP:     Cs  
          CORE-CORE REPULSION     =       8679.54378 EV
          COSMO AREA              =        200.24 SQUARE ANGSTROMS
          COSMO VOLUME            =        199.51 CUBIC ANGSTROMS

          GRADIENT NORM           =          0.94681 = 0.20186 PER ATOM
          IONIZATION POTENTIAL    =          9.015953 EV
          HOMO LUMO ENERGIES (EV) =         -9.016 -0.619
          NO. OF FILLED LEVELS    =         32
          MOLECULAR WEIGHT        =        166.1762

          MOLECULAR DIMENSIONS (Angstroms)

            Atom       Atom       Distance
            H    22    H    18     8.29880
            H    14    O    12     5.71694
            H    20    H    17     1.85707


          SCF CALCULATIONS        =         18
 
          WALL-CLOCK TIME         =          0.359 SECONDS
          COMPUTATION TIME        =          0.671 SECONDS




  ATOM    CHEMICAL      BOND LENGTH      BOND ANGLE     TWIST ANGLE 
 NUMBER    SYMBOL       (ANGSTROMS)      (DEGREES)       (DEGREES) 
   (I)                     NA:I           NB:NA:I       NC:NB:NA:I       NA    NB    NC 
     1       C          0.00000000       0.0000000       0.0000000        0     0     0
     2       C          1.39440709  *    0.0000000       0.0000000        1     0     0
     3       C          1.39198543  *  118.9418453  *    0.0000000        2     1     0
     4       C          1.41660416  *  120.8001265  *   -0.0668929  *     3     2     1
     5       C          1.38427471  *  119.8443276  *    0.1155995  *     4     3     2
     6       C          1.39274601  *  120.3357134  *   -0.0270989  *     1     2     3
     7       O          1.36054110  *  113.2314146  * -179.5188951  *     4     3     2
     8       C          1.43429255  *  116.8370804  * -178.2534327  *     7     4     3
     9       C          1.52114526  *  103.1334302  *  179.9321280  *     8     7     4
    10       O          1.35287972  *  116.6720466  *  179.8252061  *     3     2     1
    11       C          1.47680971  *  120.1917066  * -179.9718143  *     6     1     2
    12       O          1.20909490  *  122.0662337  *  179.9615429  *    11     6     1
    13       H          1.09006811  *  119.2539667  *  179.9917908  *     1     2     3
    14       H          1.08841554  *  121.4589753  *  179.9444974  *     2     1     6
    15       H          1.09143583  *  122.1300405  *  179.9843963  *     5     4     3
    16       H          1.10448963  *  109.0323516  *  -60.3428141  *     8     7     4
    17       H          1.10439725  *  109.0061444  *   60.1489121  *     8     7     4
    18       H          1.09631475  *  111.0060839  * -179.9741081  *     9     8     7
    19       H          1.09806139  *  111.4323866  *  -59.7354756  *     9     8     7
    20       H          1.09814773  *  111.4047596  *   59.8091412  *     9     8     7
    21       H          0.99472815  *  111.4399039  * -179.5070624  *    10     3     2
    22       H          1.09850541  *  117.7344926  *   -0.0360091  *    11     6     1

                             CARTESIAN COORDINATES

   1    C        0.000000000     0.000000000     0.000000000
   2    C        1.394407094     0.000000000     0.000000000
   3    C        2.068018966     1.218142227     0.000000000
   4    C        1.354199922     2.441754792    -0.001420620
   5    C       -0.030038345     2.431762014    -0.000406733
   6    C       -0.703428233     1.202052353     0.000568528
   7    O        2.163654825     3.535257872    -0.011709286
   8    C        1.520985194     4.816980073     0.025156103
   9    C        2.689714291     5.790379558     0.003975163
  10    O        3.419832304     1.164564012     0.003688084
  11    C       -2.180233140     1.198340337     0.001194713
  12    O       -2.824713685     2.221352503     0.002385752
  13    H       -0.532696279    -0.951043190    -0.000136264
  14    H        1.962438024    -0.928433648     0.000460260
  15    H       -0.617168214     3.351821837    -0.001186877
  16    H        0.870123128     4.919177686    -0.861315304
  17    H        0.923279506     4.893144724     0.950704662
  18    H        2.337299772     6.828198698     0.029302588
  19    H        3.353554284     5.639089866     0.865466143
  20    H        3.300154369     5.664066279    -0.900091380
  21    H        3.819793056     2.075308963     0.011377087
  22    H       -2.689004842     0.224756695     0.000581080


           Empirical Formula: C9 H10 O3  =    22 atoms



      MOLECULAR POINT GROUP   :   Cs  


                  EIGENVALUES  
 -31.45598 -30.99481 -30.43538 -30.22370 -27.44132 -26.28449 -25.93369 -23.00510
 -22.23937 -21.18232 -20.03689 -18.64701 -18.04570 -16.76332 -16.67742 -15.86943
 -15.21532 -15.05521 -15.01938 -14.56311 -14.19933 -13.92246 -13.65218 -13.50244
 -13.45624 -12.69375 -12.44432 -12.19650 -11.79002 -10.23898  -9.93451  -9.01595
  -0.61904  -0.09914   1.10235   1.29027   2.29513   2.47298   3.27085   3.45531
   3.68225   4.15103   4.34625   4.41771   4.61139   4.83839   4.94062   5.01610
   5.26135   5.30657   5.37403   5.43774   5.52784   5.52939   5.68995   5.88978
   6.05051   6.51549


              NET ATOMIC CHARGES AND DIPOLE CONTRIBUTIONS

  ATOM NO.   TYPE          CHARGE      No. of ELECS.   s-Pop       p-Pop       
    1          C          -0.097328        4.0973     1.08252     3.01481
    2          C          -0.227554        4.2276     1.07523     3.15232
    3          C           0.241862        3.7581     1.07899     2.67915
    4          C           0.085668        3.9143     1.07680     2.83753
    5          C          -0.160303        4.1603     1.08288     3.07742
    6          C          -0.181337        4.1813     1.07063     3.11070
    7          O          -0.370017        6.3700     1.86498     4.50504
    8          C          -0.003720        4.0037     1.09189     2.91183
    9          C          -0.458450        4.4585     1.05420     3.40425
   10          O          -0.446971        6.4470     1.84049     4.60648
   11          C           0.348455        3.6515     1.13426     2.51728
   12          O          -0.441477        6.4415     1.87915     4.56233
   13          H           0.155188        0.8448     0.84481
   14          H           0.180156        0.8198     0.81984
   15          H           0.182866        0.8171     0.81713
   16          H           0.130531        0.8695     0.86947
   17          H           0.130344        0.8697     0.86966
   18          H           0.157874        0.8421     0.84213
   19          H           0.160276        0.8397     0.83972
   20          H           0.160743        0.8393     0.83926
   21          H           0.343325        0.6567     0.65667
   22          H           0.109867        0.8901     0.89013
 DIPOLE           X         Y         Z       TOTAL
 POINT-CHG.     0.939     0.188     0.067     0.960
 HYBRID         0.774     0.644    -0.008     1.006
 SUM            1.713     0.832     0.059     1.905


          ATOMIC ORBITAL ELECTRON POPULATIONS

     Atom    s        px        py        pz   
    1  C   1.08252   1.00005   1.04863   0.96613
    2  C   1.07523   1.00802   1.05648   1.08782
    3  C   1.07899   0.78803   0.95770   0.93342
    4  C   1.07680   0.93959   0.85797   1.03997
    5  C   1.08288   0.99178   1.07424   1.01141
    6  C   1.07063   1.01905   0.98703   1.10463
    7  O   1.86498   1.38264   1.22036   1.90203
    8  C   1.09189   1.00206   0.77834   1.13143
    9  C   1.05420   1.10020   1.10749   1.19656
   10  O   1.84049   1.26963   1.44314   1.89372
   11  C   1.13426   0.90791   0.93025   0.67912
   12  O   1.87915   1.72408   1.46619   1.37206
   13  H   0.84481
   14  H   0.81984
   15  H   0.81713
   16  H   0.86947
   17  H   0.86966
   18  H   0.84213
   19  H   0.83972
   20  H   0.83926
   21  H   0.65667
   22  H   0.89013

 **********************
 *                    *
 * JOB ENDED NORMALLY *
 *                    *
 **********************



 TOTAL JOB TIME:             0.36 SECONDS

 == MOPAC DONE ==
