 *******************************************************************************
 ** Site#: 32691        For non-commercial use only    Version 19.179W 32BITS **
 *******************************************************************************
 ** Cite this program as: MOPAC2016, Version: 19.179W, James J. P. Stewart,   **
 ** Stewart Computational Chemistry, web: HTTP://OpenMOPAC.net. Days left: 246**
 *******************************************************************************
 **                                                                           **
 **                                MOPAC2016                                  **
 **                                                                           **
 *******************************************************************************

                              PM7 CALCULATION RESULTS

 *******************************************************************************
 *  CALCULATION DONE:                                Fri Oct 25 11:21:17 2019  *
 *  T=         - A TIME OF 172800.0 SECONDS REQUESTED
 *  DUMP=N     - RESTART FILE WRITTEN EVERY  7200.000 SECONDS
 *******************************************************************************

 3-ethoxy-4-methoxybenzaldehyde.mop

  ATOM    CHEMICAL      BOND LENGTH      BOND ANGLE     TWIST ANGLE 
 NUMBER    SYMBOL       (ANGSTROMS)      (DEGREES)       (DEGREES) 
   (I)                     NA:I           NB:NA:I       NC:NB:NA:I       NA    NB    NC 
     1       C          0.00000000       0.0000000       0.0000000        0     0     0
     2       C          1.35032800  *    0.0000000       0.0000000        1     0     0
     3       C          1.34258100  *  124.1783480  *    0.0000000        2     1     0
     4       C          1.34013400  *  117.3143950  *   -0.0020150  *     3     2     1
     5       C          1.34018200  *  119.4673930  *   -0.0009830  *     4     3     2
     6       C          1.35955600  *  118.1310070  *    0.0044160  *     1     2     3
     7       C          1.36065400  *  121.1134560  *  179.9987580  *     3     2     1
     8       O          1.21147600  *  125.6255430  *  179.9995780  *     7     3     2
     9       O          1.37469500  *  120.5159910  *  179.9956770  *     6     1     2
    10       C          1.40837600  *  120.3160490  * -179.9818910  *     9     6     1
    11       O          1.38025000  *  114.7955140  *  179.9969180  *     1     2     3
    12       C          1.40121700  *  122.3965260  * -179.9445550  *    11     1     2
    13       C          1.52792200  *  108.4027790  *  179.9732770  *    12    11     1
    14       H          1.10485700  *  116.7783190  * -179.9956640  *     2     1     6
    15       H          1.10290700  *  121.8427990  * -179.9994550  *     4     3     2
    16       H          1.10158900  *  115.3771830  * -179.9985380  *     5     4     3
    17       H          1.11594400  *  115.3643850  *   -0.0004940  *     7     3     2
    18       H          1.11325600  *  107.5864750  *  179.9908680  *    10     9     6
    19       H          1.11281100  *  110.4815470  *  -62.4599480  *    10     9     6
    20       H          1.11281300  *  110.4805510  *   62.4418260  *    10     9     6
    21       H          1.11469000  *  109.6925930  *  -61.7047320  *    12    11     1
    22       H          1.11469200  *  109.6921180  *   61.6501820  *    12    11     1
    23       H          1.11452700  *  110.9820670  *  179.9975910  *    13    12    11
    24       H          1.11438900  *  111.1973910  *  -60.1191250  *    13    12    11
    25       H          1.11438900  *  111.1976550  *   60.1138920  *    13    12    11
 


          CARTESIAN COORDINATES 

    NO.       ATOM           X           Y           Z

     1         C          0.0000      0.0000      0.0000
     2         C          1.3503      0.0000      0.0000
     3         C          2.1046      1.1107      0.0000
     4         C          1.4649      2.2884     -0.0000
     5         C          0.1250      2.3108     -0.0001
     6         C         -0.6410      1.1990     -0.0001
     7         C          3.4633      1.0380      0.0000
     8         O          4.2206      1.9836      0.0000
     9         O         -2.0145      1.2562     -0.0002
    10         C         -2.6742      2.5005     -0.0007
    11         O         -0.5789     -1.2530     -0.0001
    12         C         -1.9678     -1.4383     -0.0012
    13         C         -2.2541     -2.9392     -0.0016
    14         H          1.8481     -0.9864      0.0000
    15         H          2.0106      3.2469     -0.0001
    16         H         -0.3304      3.3139     -0.0002
    17         H          3.8867      0.0055      0.0001
    18         H         -3.7694      2.3006     -0.0008
    19         H         -2.4308      3.0706      0.9235
    20         H         -2.4304      3.0701     -0.9251
    21         H         -2.4067     -0.9946      0.9223
    22         H         -2.4052     -0.9944     -0.9254
    23         H         -3.3511     -3.1362     -0.0025
    24         H         -1.8204     -3.4319     -0.9022
    25         H         -1.8218     -3.4321      0.8995

 General Reference for PM7:
 "Optimization of Parameters for Semiempirical Methods VI: More Modifications to the 
 NDDO Approximations and Re-optimization of Parameters", J. J. P. Stewart, J. Mol. Mod., 1:32, 19 (2013)
 http://www.springerlink.com/openurl.asp?genre=article&id=doi:10.1007/s00894-012-1667-x

           Empirical Formula: C10 H12 O3  =    25 atoms



      MOLECULAR POINT GROUP   :   Cs  


      RHF CALCULATION, NO. OF DOUBLY OCCUPIED LEVELS = 35


          Geometry optimization using EF

          DIAGONAL MATRIX USED AS START HESSIAN

 CYCLE:     1 TIME:   0.047 TIME LEFT:  2.00D  GRAD.:   458.152 HEAT: -61.85860
 CYCLE:     2 TIME:   0.125 TIME LEFT:  2.00D  GRAD.:   412.965 HEAT: -66.47614
 CYCLE:     3 TIME:   0.031 TIME LEFT:  2.00D  GRAD.:   172.720 HEAT: -78.97914
 CYCLE:     4 TIME:   0.016 TIME LEFT:  2.00D  GRAD.:    60.466 HEAT: -86.60712
 CYCLE:     5 TIME:   0.047 TIME LEFT:  2.00D  GRAD.:    65.697 HEAT: -87.81151
 CYCLE:     6 TIME:   0.016 TIME LEFT:  2.00D  GRAD.:    27.971 HEAT: -89.34605
 CYCLE:     7 TIME:   0.016 TIME LEFT:  2.00D  GRAD.:    22.924 HEAT: -89.78531
 CYCLE:     8 TIME:   0.047 TIME LEFT:  2.00D  GRAD.:    14.214 HEAT: -89.93757
 CYCLE:     9 TIME:   0.016 TIME LEFT:  2.00D  GRAD.:    23.708 HEAT: -90.01328
 CYCLE:    10 TIME:   0.016 TIME LEFT:  2.00D  GRAD.:     9.491 HEAT: -90.08478
 CYCLE:    11 TIME:   0.016 TIME LEFT:  2.00D  GRAD.:     6.174 HEAT: -90.09771
 CYCLE:    12 TIME:   0.031 TIME LEFT:  2.00D  GRAD.:     2.439 HEAT: -90.10621
 CYCLE:    13 TIME:   0.016 TIME LEFT:  2.00D  GRAD.:     0.949 HEAT: -90.10798

     GRADIENT =  0.94891 IS LESS THAN CUTOFF =  1.00000



 -------------------------------------------------------------------------------

 3-ethoxy-4-methoxybenzaldehyde.mop



     GEOMETRY OPTIMISED USING EIGENVECTOR FOLLOWING (EF).     
     SCF FIELD WAS ACHIEVED                                   


                              PM7 CALCULATION
                                                       MOPAC2016 (Version: 19.179W)
                                                       Fri Oct 25 11:21:17 2019
                                                       No. of days remaining = 246




          FINAL HEAT OF FORMATION =        -90.10798 KCAL/MOL =    -377.01179 KJ/MOL


          TOTAL ENERGY            =      -2275.24727 EV
          ELECTRONIC ENERGY       =     -12396.64955 EV  POINT GROUP:     Cs  
          CORE-CORE REPULSION     =      10121.40228 EV
          COSMO AREA              =        216.92 SQUARE ANGSTROMS
          COSMO VOLUME            =        219.99 CUBIC ANGSTROMS

          GRADIENT NORM           =          0.94891 = 0.18978 PER ATOM
          IONIZATION POTENTIAL    =          8.728900 EV
          HOMO LUMO ENERGIES (EV) =         -8.729 -0.509
          NO. OF FILLED LEVELS    =         35
          MOLECULAR WEIGHT        =        180.2030

          MOLECULAR DIMENSIONS (Angstroms)

            Atom       Atom       Distance
            H    23    O     8     9.16859
            H    17    H    19     6.17374
            H    20    H    25     2.59460


          SCF CALCULATIONS        =         18
 
          WALL-CLOCK TIME         =          0.469 SECONDS
          COMPUTATION TIME        =          0.811 SECONDS




  ATOM    CHEMICAL      BOND LENGTH      BOND ANGLE     TWIST ANGLE 
 NUMBER    SYMBOL       (ANGSTROMS)      (DEGREES)       (DEGREES) 
   (I)                     NA:I           NB:NA:I       NC:NB:NA:I       NA    NB    NC 
     1       C          0.00000000       0.0000000       0.0000000        0     0     0
     2       C          1.39476199  *    0.0000000       0.0000000        1     0     0
     3       C          1.39710164  *  119.7879338  *    0.0000000        2     1     0
     4       C          1.39176497  *  120.4608998  *   -0.0091179  *     3     2     1
     5       C          1.39497753  *  120.2725242  *    0.0087084  *     4     3     2
     6       C          1.41521557  *  119.5183695  *    0.0161890  *     1     2     3
     7       C          1.47740270  *  119.7125472  *  179.9830770  *     3     2     1
     8       O          1.20853701  *  122.0516001  *  179.9928209  *     7     3     2
     9       O          1.36067553  *  114.8990112  * -179.9822163  *     6     1     2
    10       C          1.42193488  *  117.1980317  * -179.9824839  *     9     6     1
    11       O          1.35492269  *  112.6172242  * -179.9881649  *     1     2     3
    12       C          1.43319423  *  118.7000458  * -179.9711792  *    11     1     2
    13       C          1.52312460  *  102.8476429  *  179.9588638  *    12    11     1
    14       H          1.09038066  *  118.9037817  * -179.9925846  *     2     1     6
    15       H          1.09358830  *  119.5228016  * -179.9961177  *     4     3     2
    16       H          1.08650138  *  119.3206240  * -179.9909590  *     5     4     3
    17       H          1.09864758  *  117.6400369  *   -0.0075373  *     7     3     2
    18       H          1.09876078  *  102.0090419  *  179.9996943  *    10     9     6
    19       H          1.09465470  *  110.9156716  *  -62.3775681  *    10     9     6
    20       H          1.09463029  *  110.9126323  *   62.3812774  *    10     9     6
    21       H          1.10393359  *  109.2225491  *  -60.5479551  *    12    11     1
    22       H          1.10393345  *  109.2182331  *   60.4796395  *    12    11     1
    23       H          1.09527313  *  110.9975051  *  179.9804177  *    13    12    11
    24       H          1.09811618  *  111.2226956  *  -59.5963478  *    13    12    11
    25       H          1.09812645  *  111.2321983  *   59.5481153  *    13    12    11

                             CARTESIAN COORDINATES

   1    C        0.000000000     0.000000000     0.000000000
   2    C        1.394761992     0.000000000     0.000000000
   3    C        2.088829794     1.212502731     0.000000000
   4    C        1.398188462     2.420817358    -0.000190913
   5    C        0.003268681     2.433510669    -0.000201458
   6    C       -0.697280358     1.231517389    -0.000347966
   7    C        3.566231167     1.210558876     0.000378996
   8    O        4.208928181     2.234034440     0.000265218
   9    O       -2.053535988     1.121934577     0.000066073
  10    C       -2.803199672     2.330198896    -0.000644260
  11    O       -0.521066468    -1.250721859     0.000258351
  12    C       -1.946191327    -1.402591827    -0.000342633
  13    C       -2.125606290    -2.915112410    -0.000887088
  14    H        1.921786757    -0.954554790     0.000146169
  15    H        1.956939404     3.360887971    -0.000252542
  16    H       -0.520145144     3.385625746    -0.000501245
  17    H        4.074629376     0.236619652     0.000780260
  18    H       -3.836948249     1.957856515    -0.000120627
  19    H       -2.606157746     2.912876594     0.904855654
  20    H       -2.606620009     2.911450441    -0.907131192
  21    H       -2.362334920    -0.931092809     0.906951450
  22    H       -2.361530203    -0.930721260    -0.907812110
  23    H       -3.187260222    -3.184396900    -0.001034331
  24    H       -1.657640738    -3.370602804    -0.883721093
  25    H       -1.657637054    -3.371413378     0.881539066


           Empirical Formula: C10 H12 O3  =    25 atoms



      MOLECULAR POINT GROUP   :   Cs  


                  EIGENVALUES  
 -31.28978 -30.92403 -30.40064 -30.13939 -27.26191 -26.43873 -25.84337 -24.84861
 -22.71985 -21.78353 -20.99135 -20.00158 -18.47669 -17.35702 -16.67875 -16.48409
 -16.11992 -15.94185 -15.18030 -15.05641 -14.53697 -14.38437 -14.00588 -13.77905
 -13.72443 -13.27610 -12.82383 -12.82330 -12.59811 -12.04167 -11.85791 -11.45404
 -10.09682  -9.81373  -8.72890  -0.50913   0.07492   1.22260   1.26794   1.94351
   2.43788   3.35688   3.70446   3.79863   4.11425   4.26481   4.61262   4.64322
   4.81686   5.03944   5.04429   5.15895   5.23258   5.29538   5.47318   5.55018
   5.57383   5.69398   5.83100   5.84153   5.86672   6.03091   6.13111   6.75067


              NET ATOMIC CHARGES AND DIPOLE CONTRIBUTIONS

  ATOM NO.   TYPE          CHARGE      No. of ELECS.   s-Pop       p-Pop       
    1          C           0.145566        3.8544     1.07690     2.77753
    2          C          -0.170092        4.1701     1.08035     3.08974
    3          C          -0.175646        4.1756     1.07154     3.10411
    4          C          -0.073712        4.0737     1.08564     2.98807
    5          C          -0.261998        4.2620     1.07585     3.18615
    6          C           0.156519        3.8435     1.08556     2.75792
    7          C           0.352419        3.6476     1.13426     2.51332
    8          O          -0.441439        6.4414     1.87895     4.56249
    9          O          -0.326154        6.3262     1.86654     4.45961
   10          C          -0.198425        4.1984     1.08780     3.11062
   11          O          -0.330621        6.3306     1.86504     4.46558
   12          C          -0.017151        4.0172     1.09275     2.92440
   13          C          -0.459778        4.4598     1.05472     3.40506
   14          H           0.174615        0.8254     0.82539
   15          H           0.174688        0.8253     0.82531
   16          H           0.166495        0.8335     0.83350
   17          H           0.112217        0.8878     0.88778
   18          H           0.152153        0.8478     0.84785
   19          H           0.138014        0.8620     0.86199
   20          H           0.138001        0.8620     0.86200
   21          H           0.134609        0.8654     0.86539
   22          H           0.134592        0.8654     0.86541
   23          H           0.153669        0.8463     0.84633
   24          H           0.160719        0.8393     0.83928
   25          H           0.160741        0.8393     0.83926
 DIPOLE           X         Y         Z       TOTAL
 POINT-CHG.    -4.434    -0.756    -0.002     4.498
 HYBRID        -0.321    -0.161    -0.000     0.359
 SUM           -4.755    -0.917    -0.002     4.843


          ATOMIC ORBITAL ELECTRON POPULATIONS

     Atom    s        px        py        pz   
    1  C   1.07690   0.94202   0.83623   0.99928
    2  C   1.08035   0.99221   1.06360   1.03393
    3  C   1.07154   1.02053   0.98841   1.09517
    4  C   1.08564   0.98710   1.06091   0.94006
    5  C   1.07585   1.02474   1.05341   1.10801
    6  C   1.08556   0.80622   0.97643   0.97527
    7  C   1.13426   0.90581   0.92993   0.67758
    8  O   1.87895   1.72468   1.46593   1.37188
    9  O   1.86654   1.22850   1.33930   1.89181
   10  C   1.08780   1.02793   0.93516   1.14752
   11  O   1.86504   1.29588   1.28110   1.88861
   12  C   1.09275   0.78447   0.99971   1.14022
   13  C   1.05472   1.16834   1.03965   1.19707
   14  H   0.82539
   15  H   0.82531
   16  H   0.83350
   17  H   0.88778
   18  H   0.84785
   19  H   0.86199
   20  H   0.86200
   21  H   0.86539
   22  H   0.86541
   23  H   0.84633
   24  H   0.83928
   25  H   0.83926

 **********************
 *                    *
 * JOB ENDED NORMALLY *
 *                    *
 **********************



 TOTAL JOB TIME:             0.47 SECONDS

 == MOPAC DONE ==
