 *******************************************************************************
 ** Site#: 32691        For non-commercial use only    Version 19.179W 32BITS **
 *******************************************************************************
 ** Cite this program as: MOPAC2016, Version: 19.179W, James J. P. Stewart,   **
 ** Stewart Computational Chemistry, web: HTTP://OpenMOPAC.net. Days left: 250**
 *******************************************************************************
 **                                                                           **
 **                                MOPAC2016                                  **
 **                                                                           **
 *******************************************************************************

                              PM7 CALCULATION RESULTS

 *******************************************************************************
 *  CALCULATION DONE:                                Mon Oct 21 15:49:00 2019  *
 *  T=         - A TIME OF 172800.0 SECONDS REQUESTED
 *  DUMP=N     - RESTART FILE WRITTEN EVERY  7200.000 SECONDS
 *******************************************************************************

 3-hydroxybenzaldehyde2.mop

  ATOM    CHEMICAL      BOND LENGTH      BOND ANGLE     TWIST ANGLE 
 NUMBER    SYMBOL       (ANGSTROMS)      (DEGREES)       (DEGREES) 
   (I)                     NA:I           NB:NA:I       NC:NB:NA:I       NA    NB    NC 
     1       C          0.00000000       0.0000000       0.0000000        0     0     0
     2       C          1.34083900  *    0.0000000       0.0000000        1     0     0
     3       C          1.34159100  *  120.0873100  *    0.0000000        2     1     0
     4       C          1.34587600  *  120.1675360  *    0.0016520  *     3     2     1
     5       C          1.34633800  *  118.7150670  *   -0.0001140  *     4     3     2
     6       C          1.34364000  *  121.0028180  *    0.0016480  *     1     2     3
     7       O          1.36078100  *  121.2348290  * -179.9940690  *     6     1     2
     8       C          1.36109300  *  120.1843060  *  179.9988340  *     4     3     2
     9       O          1.21151800  *  125.6758330  *  179.9994270  *     8     4     3
    10       H          1.10289900  *  119.5877870  * -179.9973190  *     1     2     3
    11       H          1.10315100  *  119.8820150  * -179.9999440  *     2     1     6
    12       H          1.10335100  *  118.2370380  *  179.9997730  *     3     2     1
    13       H          1.10275400  *  121.1208940  *  179.9969630  *     5     4     3
    14       H          0.97096300  *  109.2017670  *  179.9134950  *     7     6     1
    15       H          1.11600800  *  115.3304120  *   -0.0001050  *     8     4     3
 


          CARTESIAN COORDINATES 

    NO.       ATOM           X           Y           Z

     1         C          0.0000      0.0000      0.0000
     2         C          1.3408      0.0000      0.0000
     3         C          2.0134      1.1608      0.0000
     4         C          1.3457      2.3294      0.0000
     5         C         -0.0005      2.3052      0.0001
     6         C         -0.6921      1.1517     -0.0000
     7         O         -2.0529      1.1572      0.0001
     8         C          2.0277      3.5073      0.0001
     9         O          1.5300      4.6119      0.0001
    10         H         -0.5446     -0.9591      0.0000
    11         H          1.8904     -0.9565      0.0000
    12         H          3.1162      1.1252      0.0000
    13         H         -0.5873      3.2388      0.0001
    14         H         -2.3685      2.0754      0.0014
    15         H          3.1398      3.4151      0.0000

 General Reference for PM7:
 "Optimization of Parameters for Semiempirical Methods VI: More Modifications to the 
 NDDO Approximations and Re-optimization of Parameters", J. J. P. Stewart, J. Mol. Mod., 1:32, 19 (2013)
 http://www.springerlink.com/openurl.asp?genre=article&id=doi:10.1007/s00894-012-1667-x

           Empirical Formula: C7 H6 O2  =    15 atoms



      MOLECULAR POINT GROUP   :   Cs  


      RHF CALCULATION, NO. OF DOUBLY OCCUPIED LEVELS = 23


          Geometry optimization using EF

          DIAGONAL MATRIX USED AS START HESSIAN

 CYCLE:     1 TIME:   0.031 TIME LEFT:  2.00D  GRAD.:   531.541 HEAT: -25.10096
 CYCLE:     2 TIME:   0.047 TIME LEFT:  2.00D  GRAD.:   386.721 HEAT: -30.78896
 CYCLE:     3 TIME:   0.016 TIME LEFT:  2.00D  GRAD.:   176.271 HEAT: -42.62001
 CYCLE:     4 TIME:   0.031 TIME LEFT:  2.00D  GRAD.:    72.685 HEAT: -49.07860
 CYCLE:     5 TIME:   0.031 TIME LEFT:  2.00D  GRAD.:    53.724 HEAT: -49.59213
 CYCLE:     6 TIME:   0.016 TIME LEFT:  2.00D  GRAD.:    16.808 HEAT: -50.14266
 CYCLE:     7 TIME:   0.016 TIME LEFT:  2.00D  GRAD.:    39.242 HEAT: -50.35698
 CYCLE:     8 TIME:   0.016 TIME LEFT:  2.00D  GRAD.:    13.125 HEAT: -50.43039
 CYCLE:     9 TIME:   0.031 TIME LEFT:  2.00D  GRAD.:     9.319 HEAT: -50.47219
 CYCLE:    10 TIME:   0.016 TIME LEFT:  2.00D  GRAD.:     9.001 HEAT: -50.48946
 CYCLE:    11 TIME:   0.016 TIME LEFT:  2.00D  GRAD.:     3.498 HEAT: -50.50258
 CYCLE:    12 TIME:   0.012 TIME LEFT:  2.00D  GRAD.:     2.264 HEAT: -50.50586
 CYCLE:    13 TIME:   0.000 TIME LEFT:  2.00D  GRAD.:     0.649 HEAT: -50.50719

     GRADIENT =  0.64886 IS LESS THAN CUTOFF =  1.00000



 -------------------------------------------------------------------------------

 3-hydroxybenzaldehyde2.mop



     GEOMETRY OPTIMISED USING EIGENVECTOR FOLLOWING (EF).     
     SCF FIELD WAS ACHIEVED                                   


                              PM7 CALCULATION
                                                       MOPAC2016 (Version: 19.179W)
                                                       Mon Oct 21 15:49:00 2019
                                                       No. of days remaining = 250




          FINAL HEAT OF FORMATION =        -50.50719 KCAL/MOL =    -211.32208 KJ/MOL


          TOTAL ENERGY            =      -1530.83534 EV
          ELECTRONIC ENERGY       =      -6480.24631 EV  POINT GROUP:     Cs  
          CORE-CORE REPULSION     =       4949.41097 EV
          COSMO AREA              =        152.87 SQUARE ANGSTROMS
          COSMO VOLUME            =        146.39 CUBIC ANGSTROMS

          GRADIENT NORM           =          0.64886 = 0.16753 PER ATOM
          IONIZATION POTENTIAL    =          9.546638 EV
          HOMO LUMO ENERGIES (EV) =         -9.547 -0.834
          NO. OF FILLED LEVELS    =         23
          MOLECULAR WEIGHT        =        122.1232

          MOLECULAR DIMENSIONS (Angstroms)

            Atom       Atom       Distance
            H    10    O     9     6.08968
            H    14    H    12     5.57062
            H    11    H    15     0.00258


          SCF CALCULATIONS        =         18
 
          WALL-CLOCK TIME         =          0.312 SECONDS
          COMPUTATION TIME        =          0.515 SECONDS




  ATOM    CHEMICAL      BOND LENGTH      BOND ANGLE     TWIST ANGLE 
 NUMBER    SYMBOL       (ANGSTROMS)      (DEGREES)       (DEGREES) 
   (I)                     NA:I           NB:NA:I       NC:NB:NA:I       NA    NB    NC 
     1       C          0.00000000       0.0000000       0.0000000        0     0     0
     2       C          1.38958877  *    0.0000000       0.0000000        1     0     0
     3       C          1.39716192  *  120.5211288  *    0.0000000        2     1     0
     4       C          1.39449571  *  119.9162119  *    0.0430888  *     3     2     1
     5       C          1.39387086  *  120.8060598  *   -0.0294257  *     4     3     2
     6       C          1.40046091  *  118.4317148  *   -0.0412611  *     1     2     3
     7       O          1.35771814  *  115.1896585  *  179.9987003  *     6     1     2
     8       C          1.48419869  *  120.0085483  *  179.9913400  *     4     3     2
     9       O          1.20753035  *  121.7420386  * -179.9608643  *     8     4     3
    10       H          1.08805677  *  121.7772584  *  179.9669576  *     1     2     3
    11       H          1.09011583  *  119.7971825  *  179.9829907  *     2     1     6
    12       H          1.08786844  *  119.6321196  * -179.9553639  *     3     2     1
    13       H          1.08957748  *  120.1143102  *  179.9805235  *     5     4     3
    14       H          0.98887200  *  112.2054822  *  179.9492601  *     7     6     1
    15       H          1.09801828  *  117.6142516  *    0.0472844  *     8     4     3

                             CARTESIAN COORDINATES

   1    C        0.000000000     0.000000000     0.000000000
   2    C        1.389588766     0.000000000     0.000000000
   3    C        2.099145927     1.203573873     0.000000000
   4    C        1.411136767     2.416529291     0.000908982
   5    C        0.017594157     2.446776049     0.001208471
   6    C       -0.666774911     1.231544236     0.000886886
   7    O       -2.022320051     1.154759388     0.000803720
   8    C        2.162834734     3.696293285     0.001105039
   9    O        1.599115811     4.764164219     0.002585041
  10    H       -0.572990734    -0.924958845    -0.000533423
  11    H        1.931301430    -0.945991414    -0.000400413
  12    H        3.186883171     1.186695178    -0.000736663
  13    H       -0.508494772     3.400929317     0.002240853
  14    H       -2.447223005     2.047688951     0.002258699
  15    H        3.259527625     3.642377635    -0.000288812


           Empirical Formula: C7 H6 O2  =    15 atoms



      MOLECULAR POINT GROUP   :   Cs  


                  EIGENVALUES  
 -31.49898 -31.07374 -30.31097 -26.84892 -25.93065 -23.28419 -21.66463 -20.23384
 -18.70770 -17.23715 -16.14352 -15.94024 -15.08964 -14.95912 -14.69767 -14.23604
 -13.99621 -12.94597 -12.63921 -12.53231 -10.40282 -10.39262  -9.54664  -0.83424
  -0.13238   0.94142   2.14630   2.20210   3.16457   3.76549   4.19686   4.30140
   4.45342   4.64074   4.80178   5.14082   5.23164   5.32864   5.57870   5.74692
   5.85500   5.95080


              NET ATOMIC CHARGES AND DIPOLE CONTRIBUTIONS

  ATOM NO.   TYPE          CHARGE      No. of ELECS.   s-Pop       p-Pop       
    1          C          -0.210206        4.2102     1.08109     3.12911
    2          C          -0.099868        4.0999     1.08420     3.01567
    3          C          -0.185417        4.1854     1.08044     3.10498
    4          C          -0.093113        4.0931     1.07946     3.01365
    5          C          -0.242082        4.2421     1.08375     3.15834
    6          C           0.268635        3.7314     1.07891     2.65245
    7          O          -0.467473        6.4675     1.83875     4.62872
    8          C           0.330935        3.6691     1.13849     2.53058
    9          O          -0.418002        6.4180     1.87931     4.53869
   10          H           0.176730        0.8233     0.82327
   11          H           0.154862        0.8451     0.84514
   12          H           0.155849        0.8442     0.84415
   13          H           0.182448        0.8176     0.81755
   14          H           0.331219        0.6688     0.66878
   15          H           0.115481        0.8845     0.88452
 DIPOLE           X         Y         Z       TOTAL
 POINT-CHG.     1.525    -2.033    -0.002     2.542
 HYBRID        -0.687     0.414     0.001     0.802
 SUM            0.838    -1.620    -0.001     1.824


          ATOMIC ORBITAL ELECTRON POPULATIONS

     Atom    s        px        py        pz   
    1  C   1.08109   1.01160   1.05949   1.05802
    2  C   1.08420   0.99897   1.05454   0.96216
    3  C   1.08044   1.08176   0.98422   1.03900
    4  C   1.07946   0.99458   1.00384   1.01523
    5  C   1.08375   1.02014   1.06332   1.07487
    6  C   1.07891   0.77393   0.96835   0.91018
    7  O   1.83875   1.28124   1.44515   1.90233
    8  C   1.13849   0.98687   0.85905   0.68466
    9  O   1.87931   1.79043   1.39471   1.35355
   10  H   0.82327
   11  H   0.84514
   12  H   0.84415
   13  H   0.81755
   14  H   0.66878
   15  H   0.88452

 **********************
 *                    *
 * JOB ENDED NORMALLY *
 *                    *
 **********************



 TOTAL JOB TIME:             0.31 SECONDS

 == MOPAC DONE ==
