 *******************************************************************************
 ** Site#: 32691        For non-commercial use only    Version 19.179W 32BITS **
 *******************************************************************************
 ** Cite this program as: MOPAC2016, Version: 19.179W, James J. P. Stewart,   **
 ** Stewart Computational Chemistry, web: HTTP://OpenMOPAC.net. Days left: 246**
 *******************************************************************************
 **                                                                           **
 **                                MOPAC2016                                  **
 **                                                                           **
 *******************************************************************************

                              PM7 CALCULATION RESULTS

 *******************************************************************************
 *  CALCULATION DONE:                                Fri Oct 25 10:18:57 2019  *
 *  T=         - A TIME OF 172800.0 SECONDS REQUESTED
 *  DUMP=N     - RESTART FILE WRITTEN EVERY  7200.000 SECONDS
 *******************************************************************************

 3-hydroxybenzaldehyde3.mop

  ATOM    CHEMICAL      BOND LENGTH      BOND ANGLE     TWIST ANGLE 
 NUMBER    SYMBOL       (ANGSTROMS)      (DEGREES)       (DEGREES) 
   (I)                     NA:I           NB:NA:I       NC:NB:NA:I       NA    NB    NC 
     1       C          0.00000000       0.0000000       0.0000000        0     0     0
     2       C          1.34567500  *    0.0000000       0.0000000        1     0     0
     3       C          1.34174200  *  120.1257830  *    0.0000000        2     1     0
     4       C          1.34076600  *  120.1671320  *   -0.0011540  *     3     2     1
     5       C          1.34339400  *  120.9647910  *   -0.0059110  *     4     3     2
     6       C          1.34656200  *  118.6829340  *    0.0032830  *     1     2     3
     7       O          1.36055100  *  120.6526490  *  179.9956750  *     5     4     3
     8       C          1.36111800  *  121.0405370  * -179.9954920  *     1     2     3
     9       O          1.21151200  *  125.7834620  *   -0.0012230  *     8     1     2
    10       H          1.10267200  *  121.9330380  * -179.9999450  *     2     1     6
    11       H          1.10320400  *  120.0081060  *  179.9965380  *     3     2     1
    12       H          1.10287300  *  119.5462210  *  179.9965280  *     4     3     2
    13       H          1.10354600  *  120.8105980  * -179.9974540  *     6     1     2
    14       H          0.97084000  *  109.3031840  *   -0.0867260  *     7     5     4
    15       H          1.11605100  *  115.3285910  *  179.9981640  *     8     1     2
 


          CARTESIAN COORDINATES 

    NO.       ATOM           X           Y           Z

     1         C          0.0000      0.0000      0.0000
     2         C          1.3457      0.0000      0.0000
     3         C          2.0191      1.1605      0.0000
     4         C          1.3547      2.3251     -0.0000
     5         C          0.0116      2.3545     -0.0002
     6         C         -0.6463      1.1813     -0.0001
     7         O         -0.6562      3.5399     -0.0001
     8         C         -0.7019     -1.1662      0.0001
     9         O         -0.2251     -2.2800      0.0002
    10         H          1.9289     -0.9358      0.0001
    11         H          3.1223      1.1582      0.0001
    12         H          1.9185      3.2729      0.0000
    13         H         -1.7491      1.2223     -0.0000
    14         H         -0.0154      4.2693      0.0014
    15         H         -1.8124     -1.0551      0.0001

 General Reference for PM7:
 "Optimization of Parameters for Semiempirical Methods VI: More Modifications to the 
 NDDO Approximations and Re-optimization of Parameters", J. J. P. Stewart, J. Mol. Mod., 1:32, 19 (2013)
 http://www.springerlink.com/openurl.asp?genre=article&id=doi:10.1007/s00894-012-1667-x

           Empirical Formula: C7 H6 O2  =    15 atoms



      MOLECULAR POINT GROUP   :   Cs  


      RHF CALCULATION, NO. OF DOUBLY OCCUPIED LEVELS = 23


          Geometry optimization using EF

          DIAGONAL MATRIX USED AS START HESSIAN

 CYCLE:     1 TIME:   0.016 TIME LEFT:  2.00D  GRAD.:   471.797 HEAT: -24.89117
 CYCLE:     2 TIME:   0.031 TIME LEFT:  2.00D  GRAD.:   418.589 HEAT: -29.98310
 CYCLE:     3 TIME:   0.000 TIME LEFT:  2.00D  GRAD.:   173.870 HEAT: -42.72232
 CYCLE:     4 TIME:   0.016 TIME LEFT:  2.00D  GRAD.:    42.450 HEAT: -49.42480
 CYCLE:     5 TIME:   0.016 TIME LEFT:  2.00D  GRAD.:    55.161 HEAT: -49.98305
 CYCLE:     6 TIME:   0.000 TIME LEFT:  2.00D  GRAD.:    19.929 HEAT: -50.19927
 CYCLE:     7 TIME:   0.016 TIME LEFT:  2.00D  GRAD.:    40.026 HEAT: -50.24854
 CYCLE:     8 TIME:   0.016 TIME LEFT:  2.00D  GRAD.:    15.347 HEAT: -50.32798
 CYCLE:     9 TIME:   0.016 TIME LEFT:  2.00D  GRAD.:     9.847 HEAT: -50.36324
 CYCLE:    10 TIME:   0.000 TIME LEFT:  2.00D  GRAD.:    10.470 HEAT: -50.37459
 CYCLE:    11 TIME:   0.016 TIME LEFT:  2.00D  GRAD.:     2.300 HEAT: -50.38253
 CYCLE:    12 TIME:   0.000 TIME LEFT:  2.00D  GRAD.:     1.876 HEAT: -50.38490
 CYCLE:    13 TIME:   0.016 TIME LEFT:  2.00D  GRAD.:     0.697 HEAT: -50.38593

     GRADIENT =  0.69660 IS LESS THAN CUTOFF =  1.00000



 -------------------------------------------------------------------------------

 3-hydroxybenzaldehyde3.mop



     GEOMETRY OPTIMISED USING EIGENVECTOR FOLLOWING (EF).     
     SCF FIELD WAS ACHIEVED                                   


                              PM7 CALCULATION
                                                       MOPAC2016 (Version: 19.179W)
                                                       Fri Oct 25 10:18:58 2019
                                                       No. of days remaining = 246




          FINAL HEAT OF FORMATION =        -50.38593 KCAL/MOL =    -210.81474 KJ/MOL


          TOTAL ENERGY            =      -1530.83128 EV
          ELECTRONIC ENERGY       =      -6467.30642 EV  POINT GROUP:     Cs  
          CORE-CORE REPULSION     =       4936.47514 EV
          COSMO AREA              =        152.63 SQUARE ANGSTROMS
          COSMO VOLUME            =        146.04 CUBIC ANGSTROMS

          GRADIENT NORM           =          0.69660 = 0.17986 PER ATOM
          IONIZATION POTENTIAL    =          9.535820 EV
          HOMO LUMO ENERGIES (EV) =         -9.536 -0.861
          NO. OF FILLED LEVELS    =         23
          MOLECULAR WEIGHT        =        122.1232

          MOLECULAR DIMENSIONS (Angstroms)

            Atom       Atom       Distance
            H    14    O     9     6.69043
            H    15    H    11     5.02959
            O     7    H    10     0.00105


          SCF CALCULATIONS        =         17
 
          WALL-CLOCK TIME         =          0.375 SECONDS
          COMPUTATION TIME        =          0.328 SECONDS




  ATOM    CHEMICAL      BOND LENGTH      BOND ANGLE     TWIST ANGLE 
 NUMBER    SYMBOL       (ANGSTROMS)      (DEGREES)       (DEGREES) 
   (I)                     NA:I           NB:NA:I       NC:NB:NA:I       NA    NB    NC 
     1       C          0.00000000       0.0000000       0.0000000        0     0     0
     2       C          1.39662225  *    0.0000000       0.0000000        1     0     0
     3       C          1.39388266  *  120.1067686  *    0.0000000        2     1     0
     4       C          1.39289155  *  120.3464591  *    0.0003829  *     3     2     1
     5       C          1.39695100  *  118.4251410  *   -0.0020759  *     4     3     2
     6       C          1.39173021  *  120.8370919  *   -0.0075845  *     1     2     3
     7       O          1.35877420  *  122.6230703  * -179.9954799  *     5     4     3
     8       C          1.48439284  *  119.5209147  *  179.9946832  *     1     2     3
     9       O          1.20730247  *  121.7941035  *   -0.0072906  *     8     1     2
    10       H          1.09242666  *  119.3329186  *  179.9963735  *     2     1     6
    11       H          1.09024202  *  119.8679298  * -179.9909546  *     3     2     1
    12       H          1.08529109  *  120.6753059  * -179.9972039  *     4     3     2
    13       H          1.08780931  *  122.3573419  *  179.9979419  *     6     1     2
    14       H          0.98728064  *  112.3497284  *   -0.0529053  *     7     5     4
    15       H          1.09823919  *  117.5262363  *  179.9909370  *     8     1     2

                             CARTESIAN COORDINATES

   1    C        0.000000000     0.000000000     0.000000000
   2    C        1.396622250     0.000000000     0.000000000
   3    C        2.095811824     1.205836970     0.000000000
   4    C        1.408929793     2.417587742     0.000008034
   5    C        0.012246458     2.390242555    -0.000028494
   6    C       -0.713399274     1.194978838     0.000158185
   7    O       -0.742543560     3.520091815    -0.000114229
   8    C       -0.731421557    -1.291682849    -0.000119864
   9    O       -0.151924150    -2.350815487    -0.000348719
  10    H        1.931783946    -0.952364409    -0.000065790
  11    H        3.186044363     1.201292289    -0.000149257
  12    H        1.947928264     3.359573625    -0.000037477
  13    H       -1.800825691     1.223838700     0.000128997
  14    H       -0.191813299     4.339493167     0.000696698
  15    H       -1.828995269    -1.253456816     0.000037737


           Empirical Formula: C7 H6 O2  =    15 atoms



      MOLECULAR POINT GROUP   :   Cs  


                  EIGENVALUES  
 -31.47315 -31.11694 -30.29318 -26.94954 -25.82092 -23.28341 -21.53816 -20.58547
 -18.39442 -17.28373 -16.21452 -16.01134 -15.10014 -14.94641 -14.59185 -14.23066
 -14.07814 -12.96127 -12.62901 -12.49047 -10.43988 -10.36284  -9.53582  -0.86081
  -0.06817   0.93397   2.08248   2.21208   3.19621   3.81463   4.07646   4.27778
   4.54205   4.57610   4.89082   5.17950   5.21555   5.33289   5.52299   5.69468
   5.87216   6.02500


              NET ATOMIC CHARGES AND DIPOLE CONTRIBUTIONS

  ATOM NO.   TYPE          CHARGE      No. of ELECS.   s-Pop       p-Pop       
    1          C          -0.102629        4.1026     1.08108     3.02155
    2          C          -0.151963        4.1520     1.08519     3.06677
    3          C          -0.094411        4.0944     1.08447     3.00994
    4          C          -0.272116        4.2721     1.08128     3.19084
    5          C           0.271966        3.7280     1.07770     2.65033
    6          C          -0.213115        4.2131     1.07918     3.13394
    7          O          -0.470832        6.4708     1.83821     4.63262
    8          C           0.332678        3.6673     1.13834     2.52898
    9          O          -0.417341        6.4173     1.87931     4.53804
   10          H           0.177540        0.8225     0.82246
   11          H           0.156089        0.8439     0.84391
   12          H           0.161220        0.8388     0.83878
   13          H           0.176995        0.8230     0.82301
   14          H           0.328622        0.6714     0.67138
   15          H           0.117297        0.8827     0.88270
 DIPOLE           X         Y         Z       TOTAL
 POINT-CHG.     0.430     2.754     0.002     2.788
 HYBRID         0.150     0.566    -0.000     0.585
 SUM            0.580     3.320     0.002     3.370


          ATOMIC ORBITAL ELECTRON POPULATIONS

     Atom    s        px        py        pz   
    1  C   1.08108   1.00504   0.99949   1.01702
    2  C   1.08519   1.00144   1.06516   1.00018
    3  C   1.08447   1.07939   0.97283   0.95772
    4  C   1.08128   1.01036   1.07718   1.10330
    5  C   1.07770   0.90712   0.83062   0.91259
    6  C   1.07918   1.09381   0.97317   1.06696
    7  O   1.83821   1.44815   1.27983   1.90464
    8  C   1.13834   0.98636   0.85834   0.68428
    9  O   1.87931   1.78237   1.40234   1.35332
   10  H   0.82246
   11  H   0.84391
   12  H   0.83878
   13  H   0.82301
   14  H   0.67138
   15  H   0.88270

 **********************
 *                    *
 * JOB ENDED NORMALLY *
 *                    *
 **********************



 TOTAL JOB TIME:             0.38 SECONDS

 == MOPAC DONE ==
