 *******************************************************************************
 ** Site#: 32691        For non-commercial use only    Version 19.179W 32BITS **
 *******************************************************************************
 ** Cite this program as: MOPAC2016, Version: 19.179W, James J. P. Stewart,   **
 ** Stewart Computational Chemistry, web: HTTP://OpenMOPAC.net. Days left: 253**
 *******************************************************************************
 **                                                                           **
 **                                MOPAC2016                                  **
 **                                                                           **
 *******************************************************************************

                              PM7 CALCULATION RESULTS

 *******************************************************************************
 *  CALCULATION DONE:                                Fri Oct 18 15:44:06 2019  *
 *  T=         - A TIME OF 172800.0 SECONDS REQUESTED
 *  DUMP=N     - RESTART FILE WRITTEN EVERY  7200.000 SECONDS
 *******************************************************************************

 3-hydroxybenzaldehyde.mop

  ATOM    CHEMICAL      BOND LENGTH      BOND ANGLE     TWIST ANGLE 
 NUMBER    SYMBOL       (ANGSTROMS)      (DEGREES)       (DEGREES) 
   (I)                     NA:I           NB:NA:I       NC:NB:NA:I       NA    NB    NC 
     1       C          0.00000000       0.0000000       0.0000000        0     0     0
     2       C          1.34598000  *    0.0000000       0.0000000        1     0     0
     3       C          1.34639900  *  118.6831810  *    0.0000000        2     1     0
     4       C          1.34537100  *  121.9679750  *    0.0004360  *     3     2     1
     5       C          1.34349100  *  118.0669110  *   -0.0077600  *     4     3     2
     6       C          1.34153400  *  120.2036620  *    0.0042530  *     1     2     3
     7       O          1.36087200  *  121.3834180  * -179.9932560  *     4     3     2
     8       C          1.36114800  *  120.1223370  * -179.9945070  *     2     1     6
     9       O          1.21155700  *  126.0119480  *  179.9973670  *     8     2     1
    10       H          1.10337900  *  121.6018660  * -179.9993950  *     1     2     3
    11       H          1.10281000  *  121.1251970  * -179.9983780  *     3     2     1
    12       H          1.10288300  *  119.4819600  * -179.9917440  *     5     4     3
    13       H          1.10315200  *  120.0356490  *  179.9959770  *     6     1     2
    14       H          0.97093800  *  109.1763680  *  179.9035770  *     7     4     3
    15       H          1.11616900  *  115.2065340  *   -0.0014420  *     8     2     1
 


          CARTESIAN COORDINATES 

    NO.       ATOM           X           Y           Z

     1         C          0.0000      0.0000      0.0000
     2         C          1.3460      0.0000      0.0000
     3         C          1.9922      1.1812      0.0000
     4         C          1.3328      2.3539      0.0000
     5         C         -0.0103      2.3238     -0.0001
     6         C         -0.6749      1.1594     -0.0001
     7         O          1.9981      3.5410     -0.0001
     8         C          2.0291     -1.1773     -0.0000
     9         O          3.2342     -1.3017     -0.0001
    10         H         -0.5782     -0.9398      0.0000
    11         H          3.0940      1.2282     -0.0000
    12         H         -0.5745      3.2715     -0.0003
    13         H         -1.7780      1.1562     -0.0002
    14         H          1.3541      4.2676     -0.0016
    15         H          1.3941     -2.0953     -0.0000

 General Reference for PM7:
 "Optimization of Parameters for Semiempirical Methods VI: More Modifications to the 
 NDDO Approximations and Re-optimization of Parameters", J. J. P. Stewart, J. Mol. Mod., 1:32, 19 (2013)
 http://www.springerlink.com/openurl.asp?genre=article&id=doi:10.1007/s00894-012-1667-x

           Empirical Formula: C7 H6 O2  =    15 atoms



      MOLECULAR POINT GROUP   :   Cs  


      RHF CALCULATION, NO. OF DOUBLY OCCUPIED LEVELS = 23


          Geometry optimization using EF

          DIAGONAL MATRIX USED AS START HESSIAN

 CYCLE:     1 TIME:   0.020 TIME LEFT:  2.00D  GRAD.:   487.913 HEAT: -24.59334
 CYCLE:     2 TIME:   0.031 TIME LEFT:  2.00D  GRAD.:   418.061 HEAT: -29.24493
 CYCLE:     3 TIME:   0.027 TIME LEFT:  2.00D  GRAD.:   176.730 HEAT: -41.79913
 CYCLE:     4 TIME:   0.020 TIME LEFT:  2.00D  GRAD.:    30.296 HEAT: -48.58159
 CYCLE:     5 TIME:   0.012 TIME LEFT:  2.00D  GRAD.:    45.275 HEAT: -49.33989
 CYCLE:     6 TIME:   0.016 TIME LEFT:  2.00D  GRAD.:    32.293 HEAT: -49.61058
 CYCLE:     7 TIME:   0.043 TIME LEFT:  2.00D  GRAD.:    31.556 HEAT: -49.83427
 CYCLE:     8 TIME:   0.000 TIME LEFT:  2.00D  GRAD.:    20.767 HEAT: -49.95379
 CYCLE:     9 TIME:   0.016 TIME LEFT:  2.00D  GRAD.:     6.753 HEAT: -49.98126
 CYCLE:    10 TIME:   0.016 TIME LEFT:  2.00D  GRAD.:    12.981 HEAT: -50.00244
 CYCLE:    11 TIME:   0.016 TIME LEFT:  2.00D  GRAD.:     2.933 HEAT: -50.01679
 CYCLE:    12 TIME:   0.000 TIME LEFT:  2.00D  GRAD.:     2.667 HEAT: -50.01981
 CYCLE:    13 TIME:   0.016 TIME LEFT:  2.00D  GRAD.:     0.670 HEAT: -50.02137

     GRADIENT =  0.67020 IS LESS THAN CUTOFF =  1.00000



 -------------------------------------------------------------------------------

 3-hydroxybenzaldehyde.mop



     GEOMETRY OPTIMISED USING EIGENVECTOR FOLLOWING (EF).     
     SCF FIELD WAS ACHIEVED                                   


                              PM7 CALCULATION
                                                       MOPAC2016 (Version: 19.179W)
                                                       Fri Oct 18 15:44:07 2019
                                                       No. of days remaining = 253




          FINAL HEAT OF FORMATION =        -50.02137 KCAL/MOL =    -209.28942 KJ/MOL


          TOTAL ENERGY            =      -1530.81526 EV
          ELECTRONIC ENERGY       =      -6478.21588 EV  POINT GROUP:     Cs  
          CORE-CORE REPULSION     =       4947.40062 EV
          COSMO AREA              =        152.41 SQUARE ANGSTROMS
          COSMO VOLUME            =        145.91 CUBIC ANGSTROMS

          GRADIENT NORM           =          0.67020 = 0.17304 PER ATOM
          IONIZATION POTENTIAL    =          9.534902 EV
          HOMO LUMO ENERGIES (EV) =         -9.535 -0.830
          NO. OF FILLED LEVELS    =         23
          MOLECULAR WEIGHT        =        122.1232

          MOLECULAR DIMENSIONS (Angstroms)

            Atom       Atom       Distance
            H    15    H    14     6.55278
            H    13    O     9     5.14769
            H    12    H    14     0.00100


          SCF CALCULATIONS        =         17
 
          WALL-CLOCK TIME         =          0.242 SECONDS
          COMPUTATION TIME        =          0.312 SECONDS




  ATOM    CHEMICAL      BOND LENGTH      BOND ANGLE     TWIST ANGLE 
 NUMBER    SYMBOL       (ANGSTROMS)      (DEGREES)       (DEGREES) 
   (I)                     NA:I           NB:NA:I       NC:NB:NA:I       NA    NB    NC 
     1       C          0.00000000       0.0000000       0.0000000        0     0     0
     2       C          1.39946499  *    0.0000000       0.0000000        1     0     0
     3       C          1.38902273  *  120.7998928  *    0.0000000        2     1     0
     4       C          1.40072708  *  118.0602738  *    0.0128444  *     3     2     1
     5       C          1.39494390  *  122.2625943  *   -0.0047751  *     4     3     2
     6       C          1.39193813  *  119.9815365  *    0.0000837  *     1     2     3
     7       O          1.35768261  *  114.9885225  *  179.9898514  *     4     3     2
     8       C          1.48413123  *  119.7097637  * -179.9829709  *     2     1     6
     9       O          1.20712481  *  121.8938688  *  179.9978386  *     8     2     1
    10       H          1.08792206  *  120.2180539  * -179.9992568  *     1     2     3
    11       H          1.09241496  *  121.3366880  * -179.9981978  *     3     2     1
    12       H          1.08502323  *  121.0543936  * -179.9996832  *     5     4     3
    13       H          1.08990969  *  119.8905586  * -179.9996214  *     6     1     2
    14       H          0.98758506  *  112.3895759  *  179.9313582  *     7     4     3
    15       H          1.09813911  *  117.4827521  *    0.0044404  *     8     2     1

                             CARTESIAN COORDINATES

   1    C        0.000000000     0.000000000     0.000000000
   2    C        1.399464990     0.000000000     0.000000000
   3    C        2.110701937     1.193116155     0.000000000
   4    C        1.386346065     2.392009335     0.000277099
   5    C       -0.008330006     2.419342728     0.000450487
   6    C       -0.695580574     1.205677994    -0.000001761
   7    O        2.143029127     3.519277171     0.000478761
   8    C        2.135010349    -1.289037779    -0.000381237
   9    O        3.341258218    -1.335042009    -0.000433505
  10    H       -0.547542747    -0.940091138     0.000012195
  11    H        3.203068958     1.203350670    -0.000029349
  12    H       -0.549719983     3.359647071     0.000659438
  13    H       -1.785488890     1.203947367     0.000004486
  14    H        1.594517595     4.340531416    -0.000423240
  15    H        1.540018810    -2.212019068    -0.000729713


           Empirical Formula: C7 H6 O2  =    15 atoms



      MOLECULAR POINT GROUP   :   Cs  


                  EIGENVALUES  
 -31.46763 -31.07956 -30.30765 -26.76388 -26.05363 -23.18237 -21.46453 -20.71353
 -18.24144 -17.31362 -16.67932 -15.27684 -15.16406 -15.06995 -14.65134 -14.20470
 -13.96516 -13.14016 -12.63822 -12.38924 -10.39206 -10.34950  -9.53490  -0.82967
  -0.08603   0.94555   2.12900   2.21789   3.20361   3.81654   4.14684   4.21791
   4.53268   4.61685   4.85011   5.21771   5.28912   5.31498   5.50421   5.69448
   5.76199   6.11815


              NET ATOMIC CHARGES AND DIPOLE CONTRIBUTIONS

  ATOM NO.   TYPE          CHARGE      No. of ELECS.   s-Pop       p-Pop       
    1          C          -0.189437        4.1894     1.07985     3.10959
    2          C          -0.103158        4.1032     1.08103     3.02212
    3          C          -0.172766        4.1728     1.08446     3.08831
    4          C           0.267844        3.7322     1.07941     2.65275
    5          C          -0.277160        4.2772     1.08054     3.19662
    6          C          -0.088609        4.0886     1.08281     3.00580
    7          O          -0.463058        6.4631     1.83843     4.62463
    8          C           0.329751        3.6702     1.13782     2.53243
    9          O          -0.411671        6.4117     1.87940     4.53227
   10          H           0.155821        0.8442     0.84418
   11          H           0.196567        0.8034     0.80343
   12          H           0.161274        0.8387     0.83873
   13          H           0.152499        0.8475     0.84750
   14          H           0.327378        0.6726     0.67262
   15          H           0.114724        0.8853     0.88528
 DIPOLE           X         Y         Z       TOTAL
 POINT-CHG.    -4.109     0.647    -0.002     4.160
 HYBRID         0.136     0.727    -0.000     0.739
 SUM           -3.973     1.374    -0.002     4.204


          ATOMIC ORBITAL ELECTRON POPULATIONS

     Atom    s        px        py        pz   
    1  C   1.07985   1.00359   1.06228   1.04372
    2  C   1.08103   0.99085   1.01353   1.01775
    3  C   1.08446   1.10519   0.96010   1.02302
    4  C   1.07941   0.90704   0.83565   0.91005
    5  C   1.08054   1.01253   1.07543   1.10866
    6  C   1.08281   1.07684   0.97140   0.95756
    7  O   1.83843   1.44491   1.27782   1.90191
    8  C   1.13782   0.87160   0.97346   0.68738
    9  O   1.87940   1.26241   1.91991   1.34995
   10  H   0.84418
   11  H   0.80343
   12  H   0.83873
   13  H   0.84750
   14  H   0.67262
   15  H   0.88528

 **********************
 *                    *
 * JOB ENDED NORMALLY *
 *                    *
 **********************



 TOTAL JOB TIME:             0.26 SECONDS

 == MOPAC DONE ==
