 *******************************************************************************
 ** Site#: 32691        For non-commercial use only    Version 19.179W 32BITS **
 *******************************************************************************
 ** Cite this program as: MOPAC2016, Version: 19.179W, James J. P. Stewart,   **
 ** Stewart Computational Chemistry, web: HTTP://OpenMOPAC.net. Days left: 250**
 *******************************************************************************
 **                                                                           **
 **                                MOPAC2016                                  **
 **                                                                           **
 *******************************************************************************

                              PM7 CALCULATION RESULTS

 *******************************************************************************
 *  CALCULATION DONE:                                Mon Oct 21 15:46:14 2019  *
 *  T=         - A TIME OF 172800.0 SECONDS REQUESTED
 *  DUMP=N     - RESTART FILE WRITTEN EVERY  7200.000 SECONDS
 *******************************************************************************

 4-hydroxybenzaldehyde2.mop

  ATOM    CHEMICAL      BOND LENGTH      BOND ANGLE     TWIST ANGLE 
 NUMBER    SYMBOL       (ANGSTROMS)      (DEGREES)       (DEGREES) 
   (I)                     NA:I           NB:NA:I       NC:NB:NA:I       NA    NB    NC 
     1       C          0.00000000       0.0000000       0.0000000        0     0     0
     2       C          1.34233800  *    0.0000000       0.0000000        1     0     0
     3       C          1.34565100  *  120.5152320  *    0.0000000        2     1     0
     4       C          1.34586100  *  118.3511500  *   -0.0044010  *     3     2     1
     5       C          1.34225300  *  120.5573480  *    0.0068060  *     4     3     2
     6       C          1.34344500  *  121.5360530  *   -0.0062570  *     1     2     3
     7       O          1.36025100  *  120.9198450  *  179.9982830  *     6     1     2
     8       C          1.36084000  *  121.2516120  *  179.9976300  *     3     2     1
     9       O          1.21149800  *  125.7545810  *   -0.0060560  *     8     3     2
    10       H          1.10327200  *  119.3982980  *  179.9977890  *     1     2     3
    11       H          1.10285800  *  117.8061810  *  179.9947060  *     2     1     6
    12       H          1.10353600  *  121.3473710  * -179.9940390  *     4     3     2
    13       H          1.10326000  *  119.4723580  * -179.9994580  *     5     4     3
    14       H          0.97088700  *  109.1789630  *   -0.0882390  *     7     6     1
    15       H          1.11604400  *  115.2736440  *  179.9958750  *     8     3     2
 


          CARTESIAN COORDINATES 

    NO.       ATOM           X           Y           Z

     1         C          0.0000      0.0000      0.0000
     2         C          1.3423      0.0000      0.0000
     3         C          2.0256      1.1593      0.0000
     4         C          1.3298      2.3113     -0.0001
     5         C         -0.0124      2.2978     -0.0000
     6         C         -0.7027      1.1450      0.0001
     7         O         -2.0628      1.1304      0.0001
     8         C          3.3863      1.1768      0.0000
     9         O          4.1068      0.2028      0.0002
    10         H         -0.5416     -0.9612     -0.0000
    11         H          1.8568     -0.9755     -0.0000
    12         H          1.8396      3.2900     -0.0002
    13         H         -0.5649      3.2528     -0.0001
    14         H         -2.3719      0.2100     -0.0014
    15         H          3.8498      2.1920     -0.0000

 General Reference for PM7:
 "Optimization of Parameters for Semiempirical Methods VI: More Modifications to the 
 NDDO Approximations and Re-optimization of Parameters", J. J. P. Stewart, J. Mol. Mod., 1:32, 19 (2013)
 http://www.springerlink.com/openurl.asp?genre=article&id=doi:10.1007/s00894-012-1667-x

           Empirical Formula: C7 H6 O2  =    15 atoms



      MOLECULAR POINT GROUP   :   Cs  


      RHF CALCULATION, NO. OF DOUBLY OCCUPIED LEVELS = 23


          Geometry optimization using EF

          DIAGONAL MATRIX USED AS START HESSIAN

 CYCLE:     1 TIME:   0.012 TIME LEFT:  2.00D  GRAD.:   496.379 HEAT: -27.08596
 CYCLE:     2 TIME:   0.094 TIME LEFT:  2.00D  GRAD.:   409.853 HEAT: -32.31252
 CYCLE:     3 TIME:   0.016 TIME LEFT:  2.00D  GRAD.:   176.451 HEAT: -44.80219
 CYCLE:     4 TIME:   0.078 TIME LEFT:  2.00D  GRAD.:    30.066 HEAT: -51.35619
 CYCLE:     5 TIME:   0.016 TIME LEFT:  2.00D  GRAD.:    35.139 HEAT: -51.79089
 CYCLE:     6 TIME:   0.016 TIME LEFT:  2.00D  GRAD.:    33.976 HEAT: -51.98685
 CYCLE:     7 TIME:   0.000 TIME LEFT:  2.00D  GRAD.:    21.249 HEAT: -52.22109
 CYCLE:     8 TIME:   0.016 TIME LEFT:  2.00D  GRAD.:     7.843 HEAT: -52.27702
 CYCLE:     9 TIME:   0.016 TIME LEFT:  2.00D  GRAD.:    10.342 HEAT: -52.29726
 CYCLE:    10 TIME:   0.016 TIME LEFT:  2.00D  GRAD.:    10.439 HEAT: -52.32350
 CYCLE:    11 TIME:   0.016 TIME LEFT:  2.00D  GRAD.:     6.477 HEAT: -52.32714
 CYCLE:    12 TIME:   0.000 TIME LEFT:  2.00D  GRAD.:     0.740 HEAT: -52.33010

     GRADIENT =  0.74038 IS LESS THAN CUTOFF =  1.00000



 -------------------------------------------------------------------------------

 4-hydroxybenzaldehyde2.mop



     GEOMETRY OPTIMISED USING EIGENVECTOR FOLLOWING (EF).     
     SCF FIELD WAS ACHIEVED                                   


                              PM7 CALCULATION
                                                       MOPAC2016 (Version: 19.179W)
                                                       Mon Oct 21 15:46:15 2019
                                                       No. of days remaining = 250




          FINAL HEAT OF FORMATION =        -52.33010 KCAL/MOL =    -218.94915 KJ/MOL


          TOTAL ENERGY            =      -1530.91612 EV
          ELECTRONIC ENERGY       =      -6456.60895 EV  POINT GROUP:     Cs  
          CORE-CORE REPULSION     =       4925.69284 EV
          COSMO AREA              =        152.77 SQUARE ANGSTROMS
          COSMO VOLUME            =        145.81 CUBIC ANGSTROMS

          GRADIENT NORM           =          0.74038 = 0.19117 PER ATOM
          IONIZATION POTENTIAL    =          9.626956 EV
          HOMO LUMO ENERGIES (EV) =         -9.627 -0.653
          NO. OF FILLED LEVELS    =         23
          MOLECULAR WEIGHT        =        122.1232

          MOLECULAR DIMENSIONS (Angstroms)

            Atom       Atom       Distance
            H    15    H    14     6.76978
            H    11    H    13     4.81407
            H    10    H    15     0.00091


          SCF CALCULATIONS        =         16
 
          WALL-CLOCK TIME         =          0.328 SECONDS
          COMPUTATION TIME        =          0.484 SECONDS




  ATOM    CHEMICAL      BOND LENGTH      BOND ANGLE     TWIST ANGLE 
 NUMBER    SYMBOL       (ANGSTROMS)      (DEGREES)       (DEGREES) 
   (I)                     NA:I           NB:NA:I       NC:NB:NA:I       NA    NB    NC 
     1       C          0.00000000       0.0000000       0.0000000        0     0     0
     2       C          1.39095825  *    0.0000000       0.0000000        1     0     0
     3       C          1.39788340  *  120.3845061  *    0.0000000        2     1     0
     4       C          1.40074159  *  120.4199261  *    0.0096642  *     3     2     1
     5       C          1.38587824  *  120.3213611  *   -0.0007849  *     4     3     2
     6       C          1.39750359  *  118.0839218  *   -0.0101644  *     1     2     3
     7       O          1.35353789  *  122.4339354  * -179.9914817  *     6     1     2
     8       C          1.47357730  *  119.3059273  * -179.9932701  *     3     2     1
     9       O          1.20925180  *  122.0306621  *    0.0032163  *     8     3     2
    10       H          1.08428891  *  120.8031503  * -179.9989851  *     1     2     3
    11       H          1.09588247  *  120.3417630  * -179.9998767  *     2     1     6
    12       H          1.09151107  *  119.9652715  *  179.9936462  *     4     3     2
    13       H          1.08714209  *  122.0434004  *  179.9919082  *     5     4     3
    14       H          0.98909475  *  112.6415336  *   -0.0642604  *     7     6     1
    15       H          1.09836933  *  117.6841455  * -179.9985182  *     8     3     2

                             CARTESIAN COORDINATES

   1    C        0.000000000     0.000000000     0.000000000
   2    C        1.390958250     0.000000000     0.000000000
   3    C        2.098008380     1.205884788     0.000000000
   4    C        1.414737670     2.428675894     0.000203740
   5    C        0.029126957     2.455904976     0.000391287
   6    C       -0.657894833     1.232960112     0.000218731
   7    O       -2.007533586     1.335624776     0.000406787
   8    C        3.571324583     1.178146704    -0.000150933
   9    O        4.193268220     0.141095111    -0.000333111
  10    H       -0.555253608    -0.931330162     0.000016498
  11    H        1.944550751    -0.945776767    -0.000169819
  12    H        1.974278813     3.365857902     0.000307142
  13    H       -0.529451961     3.388571811     0.000681828
  14    H       -2.456443269     0.454269340    -0.000652830
  15    H        4.099841742     2.140999132    -0.000122127


           Empirical Formula: C7 H6 O2  =    15 atoms



      MOLECULAR POINT GROUP   :   Cs  


                  EIGENVALUES  
 -31.50267 -31.02408 -30.36377 -26.59502 -26.35626 -22.83775 -22.07697 -20.23436
 -18.67772 -17.59899 -16.12901 -15.28582 -15.11262 -15.10272 -14.86062 -14.25342
 -13.97618 -13.36117 -12.60410 -12.29621 -10.48349 -10.26384  -9.62696  -0.65323
  -0.26423   1.02169   1.99144   2.19420   3.38383   3.67596   3.98904   4.20690
   4.56802   4.67031   4.93533   5.12022   5.29092   5.35682   5.42205   5.67744
   5.78632   5.97737


              NET ATOMIC CHARGES AND DIPOLE CONTRIBUTIONS

  ATOM NO.   TYPE          CHARGE      No. of ELECS.   s-Pop       p-Pop       
    1          C          -0.343234        4.3432     1.07638     3.26686
    2          C           0.012195        3.9878     1.09338     2.89443
    3          C          -0.254822        4.2548     1.07066     3.18416
    4          C          -0.034026        4.0340     1.08859     2.94544
    5          C          -0.273530        4.2735     1.07484     3.19869
    6          C           0.334931        3.6651     1.08601     2.57906
    7          O          -0.466064        6.4661     1.83694     4.62912
    8          C           0.350763        3.6492     1.13217     2.51706
    9          O          -0.442123        6.4421     1.87927     4.56285
   10          H           0.167688        0.8323     0.83231
   11          H           0.173401        0.8266     0.82660
   12          H           0.152463        0.8475     0.84754
   13          H           0.180040        0.8200     0.81996
   14          H           0.332553        0.6674     0.66745
   15          H           0.109767        0.8902     0.89023
 DIPOLE           X         Y         Z       TOTAL
 POINT-CHG.    -1.810     1.291    -0.001     2.223
 HYBRID        -0.582    -0.475    -0.000     0.752
 SUM           -2.392     0.816    -0.001     2.528


          ATOMIC ORBITAL ELECTRON POPULATIONS

     Atom    s        px        py        pz   
    1  C   1.07638   1.03717   1.05880   1.17089
    2  C   1.09338   0.98270   1.05643   0.85530
    3  C   1.07066   1.02780   0.99988   1.15647
    4  C   1.08859   1.00015   1.04333   0.90196
    5  C   1.07484   1.01134   1.06386   1.12350
    6  C   1.08601   0.76620   0.96580   0.84705
    7  O   1.83694   1.28738   1.45199   1.88975
    8  C   1.13217   0.90836   0.92827   0.68043
    9  O   1.87927   1.73662   1.45158   1.37465
   10  H   0.83231
   11  H   0.82660
   12  H   0.84754
   13  H   0.81996
   14  H   0.66745
   15  H   0.89023

 **********************
 *                    *
 * JOB ENDED NORMALLY *
 *                    *
 **********************



 TOTAL JOB TIME:             0.33 SECONDS

 == MOPAC DONE ==
