 *******************************************************************************
 ** Site#: 32691        For non-commercial use only    Version 19.179W 32BITS **
 *******************************************************************************
 ** Cite this program as: MOPAC2016, Version: 19.179W, James J. P. Stewart,   **
 ** Stewart Computational Chemistry, web: HTTP://OpenMOPAC.net. Days left: 253**
 *******************************************************************************
 **                                                                           **
 **                                MOPAC2016                                  **
 **                                                                           **
 *******************************************************************************

                              PM7 CALCULATION RESULTS

 *******************************************************************************
 *  CALCULATION DONE:                                Fri Oct 18 15:40:50 2019  *
 *  T=         - A TIME OF 172800.0 SECONDS REQUESTED
 *  DUMP=N     - RESTART FILE WRITTEN EVERY  7200.000 SECONDS
 *******************************************************************************

 4-hydroxybenzaldehyde.mop

  ATOM    CHEMICAL      BOND LENGTH      BOND ANGLE     TWIST ANGLE 
 NUMBER    SYMBOL       (ANGSTROMS)      (DEGREES)       (DEGREES) 
   (I)                     NA:I           NB:NA:I       NC:NB:NA:I       NA    NB    NC 
     1       C          0.00000000       0.0000000       0.0000000        0     0     0
     2       C          1.34241900  *    0.0000000       0.0000000        1     0     0
     3       C          1.34365100  *  121.5664540  *    0.0000000        2     1     0
     4       C          1.34345100  *  117.5362160  *   -0.0110830  *     3     2     1
     5       C          1.34223800  *  121.4730740  *    0.0123960  *     4     3     2
     6       C          1.34558100  *  120.4932250  *    0.0021750  *     1     2     3
     7       O          1.36036900  *  121.5306940  * -179.9953460  *     3     2     1
     8       C          1.36085600  *  121.2510430  * -179.9962620  *     6     1     2
     9       O          1.21154800  *  125.8701550  *    0.0030700  *     8     6     1
    10       H          1.10281800  *  117.8334470  * -179.9990930  *     1     2     3
    11       H          1.10327900  *  119.4562850  * -179.9975040  *     2     1     6
    12       H          1.10324200  *  119.1068130  * -179.9906120  *     4     3     2
    13       H          1.10353500  *  118.0762640  *  179.9956890  *     5     4     3
    14       H          0.97093900  *  109.1630800  *  179.8945970  *     7     3     2
    15       H          1.11610200  *  115.2243080  * -179.9986140  *     8     6     1
 


          CARTESIAN COORDINATES 

    NO.       ATOM           X           Y           Z

     1         C          0.0000      0.0000      0.0000
     2         C          1.3424      0.0000      0.0000
     3         C          2.0458      1.1448      0.0000
     4         C          1.3559      2.2976     -0.0002
     5         C          0.0138      2.3111     -0.0002
     6         C         -0.6828      1.1595     -0.0000
     7         O          3.4062      1.1440     -0.0001
     8         C         -2.0435      1.1775      0.0000
     9         O         -2.7664      0.2052      0.0002
    10         H         -0.5149     -0.9752      0.0000
    11         H          1.8850     -0.9607     -0.0000
    12         H          1.9075      3.2531     -0.0004
    13         H         -0.4958      3.2900     -0.0003
    14         H          3.7255      2.0609     -0.0018
    15         H         -2.5058      2.1934     -0.0000

 General Reference for PM7:
 "Optimization of Parameters for Semiempirical Methods VI: More Modifications to the 
 NDDO Approximations and Re-optimization of Parameters", J. J. P. Stewart, J. Mol. Mod., 1:32, 19 (2013)
 http://www.springerlink.com/openurl.asp?genre=article&id=doi:10.1007/s00894-012-1667-x

           Empirical Formula: C7 H6 O2  =    15 atoms



      MOLECULAR POINT GROUP   :   Cs  


      RHF CALCULATION, NO. OF DOUBLY OCCUPIED LEVELS = 23


          Geometry optimization using EF

          DIAGONAL MATRIX USED AS START HESSIAN

 CYCLE:     1 TIME:   0.016 TIME LEFT:  2.00D  GRAD.:   542.966 HEAT: -26.94640
 CYCLE:     2 TIME:   0.062 TIME LEFT:  2.00D  GRAD.:   387.529 HEAT: -32.22761
 CYCLE:     3 TIME:   0.109 TIME LEFT:  2.00D  GRAD.:   179.392 HEAT: -43.93330
 CYCLE:     4 TIME:   0.047 TIME LEFT:  2.00D  GRAD.:    70.952 HEAT: -50.51883
 CYCLE:     5 TIME:   0.000 TIME LEFT:  2.00D  GRAD.:    54.522 HEAT: -51.13818
 CYCLE:     6 TIME:   0.000 TIME LEFT:  2.00D  GRAD.:    52.592 HEAT: -51.63262
 CYCLE:     7 TIME:   0.039 TIME LEFT:  2.00D  GRAD.:    58.411 HEAT: -51.76993
 CYCLE:     8 TIME:   0.000 TIME LEFT:  2.00D  GRAD.:    46.059 HEAT: -51.85878
 CYCLE:     9 TIME:   0.016 TIME LEFT:  2.00D  GRAD.:    45.281 HEAT: -52.01683
 CYCLE:    10 TIME:   0.016 TIME LEFT:  2.00D  GRAD.:     5.074 HEAT: -52.14929
 CYCLE:    11 TIME:   0.000 TIME LEFT:  2.00D  GRAD.:     1.974 HEAT: -52.16177
 CYCLE:    12 TIME:   0.016 TIME LEFT:  2.00D  GRAD.:     1.446 HEAT: -52.16768
 CYCLE:    13 TIME:   0.000 TIME LEFT:  2.00D  GRAD.:     2.157 HEAT: -52.16907
 CYCLE:    14 TIME:   0.016 TIME LEFT:  2.00D  GRAD.:     0.506 HEAT: -52.16948

     GRADIENT =  0.50564 IS LESS THAN CUTOFF =  1.00000



 -------------------------------------------------------------------------------

 4-hydroxybenzaldehyde.mop



     GEOMETRY OPTIMISED USING EIGENVECTOR FOLLOWING (EF).     
     SCF FIELD WAS ACHIEVED                                   


                              PM7 CALCULATION
                                                       MOPAC2016 (Version: 19.179W)
                                                       Fri Oct 18 15:40:51 2019
                                                       No. of days remaining = 253




          FINAL HEAT OF FORMATION =        -52.16948 KCAL/MOL =    -218.27711 KJ/MOL


          TOTAL ENERGY            =      -1530.90916 EV
          ELECTRONIC ENERGY       =      -6456.66399 EV  POINT GROUP:     Cs  
          CORE-CORE REPULSION     =       4925.75483 EV
          COSMO AREA              =        152.46 SQUARE ANGSTROMS
          COSMO VOLUME            =        145.99 CUBIC ANGSTROMS

          GRADIENT NORM           =          0.50564 = 0.13056 PER ATOM
          IONIZATION POTENTIAL    =          9.631754 EV
          HOMO LUMO ENERGIES (EV) =         -9.632 -0.647
          NO. OF FILLED LEVELS    =         23
          MOLECULAR WEIGHT        =        122.1232

          MOLECULAR DIMENSIONS (Angstroms)

            Atom       Atom       Distance
            H    14    O     9     6.90127
            H    13    H    11     4.82851
            H    13    O     7     0.00192


          SCF CALCULATIONS        =         17
 
          WALL-CLOCK TIME         =          0.367 SECONDS
          COMPUTATION TIME        =          0.530 SECONDS




  ATOM    CHEMICAL      BOND LENGTH      BOND ANGLE     TWIST ANGLE 
 NUMBER    SYMBOL       (ANGSTROMS)      (DEGREES)       (DEGREES) 
   (I)                     NA:I           NB:NA:I       NC:NB:NA:I       NA    NB    NC 
     1       C          0.00000000       0.0000000       0.0000000        0     0     0
     2       C          1.38649074  *    0.0000000       0.0000000        1     0     0
     3       C          1.40128441  *  118.0926209  *    0.0000000        2     1     0
     4       C          1.39907879  *  122.5700994  *   -0.0419262  *     3     2     1
     5       C          1.39037288  *  118.2145887  *    0.0148152  *     4     3     2
     6       C          1.40177460  *  120.4085861  *    0.0157909  *     1     2     3
     7       O          1.35346273  *  115.1167984  *  179.9695205  *     3     2     1
     8       C          1.47359229  *  119.2192627  * -179.9778836  *     6     1     2
     9       O          1.20920414  *  122.0435237  *    0.0123125  *     8     6     1
    10       H          1.09583291  *  120.5172432  * -179.9723132  *     1     2     3
    11       H          1.08741444  *  121.9469207  * -179.9829701  *     2     1     6
    12       H          1.08395822  *  120.9596846  * -179.9864344  *     4     3     2
    13       H          1.09137950  *  119.6078953  * -179.9875650  *     5     4     3
    14       H          0.98862990  *  112.7365709  *  179.9409677  *     7     3     2
    15       H          1.09859558  *  117.7912811  *  179.9962820  *     8     6     1

                             CARTESIAN COORDINATES

   1    C        0.000000000     0.000000000     0.000000000
   2    C        1.386490744     0.000000000     0.000000000
   3    C        2.046353147     1.236195618     0.000000000
   4    C        1.360875106     2.455843340    -0.000862771
   5    C       -0.029230752     2.428601185    -0.001433957
   6    C       -0.709526453     1.208943398    -0.000333188
   7    O        3.397990623     1.165931286     0.000651918
   8    C       -2.182801205     1.178357530     0.000171678
   9    O       -2.802947683     0.140286166     0.001087304
  10    H       -0.556461373    -0.944034052     0.000456182
  11    H        1.961878040    -0.922713184    -0.000019954
  12    H        1.897981598     3.397375065    -0.001060558
  13    H       -0.586927402     3.366728510    -0.002316308
  14    H        3.826912065     2.056669494    -0.000309363
  15    H       -2.715085597     2.139391107    -0.000040687


           Empirical Formula: C7 H6 O2  =    15 atoms



      MOLECULAR POINT GROUP   :   Cs  


                  EIGENVALUES  
 -31.50273 -31.03086 -30.36379 -26.70665 -26.22796 -23.02114 -21.78101 -20.39038
 -18.83863 -16.94206 -16.73775 -15.42428 -15.11192 -14.94907 -14.57309 -14.25301
 -14.21908 -13.26270 -12.60587 -12.31680 -10.47073 -10.26185  -9.63175  -0.64686
  -0.27551   1.02407   1.99010   2.19857   3.38278   3.65738   3.98284   4.24136
   4.52349   4.67552   4.99632   5.11641   5.22732   5.35457   5.41991   5.61293
   5.84545   6.02355


              NET ATOMIC CHARGES AND DIPOLE CONTRIBUTIONS

  ATOM NO.   TYPE          CHARGE      No. of ELECS.   s-Pop       p-Pop       
    1          C          -0.000598        4.0006     1.09415     2.90645
    2          C          -0.278294        4.2783     1.07619     3.20210
    3          C           0.334476        3.6655     1.08609     2.57944
    4          C          -0.338425        4.3384     1.07499     3.26344
    5          C          -0.022414        4.0224     1.08769     2.93473
    6          C          -0.253243        4.2532     1.07073     3.18251
    7          O          -0.464215        6.4642     1.83670     4.62752
    8          C           0.349596        3.6504     1.13216     2.51824
    9          O          -0.439820        6.4398     1.87933     4.56049
   10          H           0.175636        0.8244     0.82436
   11          H           0.183122        0.8169     0.81688
   12          H           0.164319        0.8357     0.83568
   13          H           0.150266        0.8497     0.84973
   14          H           0.330908        0.6691     0.66909
   15          H           0.108686        0.8913     0.89131
 DIPOLE           X         Y         Z       TOTAL
 POINT-CHG.     1.764     3.234    -0.004     3.683
 HYBRID         0.572     0.187     0.000     0.602
 SUM            2.336     3.421    -0.004     4.142


          ATOMIC ORBITAL ELECTRON POPULATIONS

     Atom    s        px        py        pz   
    1  C   1.09415   0.98800   1.05581   0.86263
    2  C   1.07619   1.01823   1.05976   1.12411
    3  C   1.08609   0.76565   0.96639   0.84739
    4  C   1.07499   1.03041   1.06215   1.17088
    5  C   1.08769   0.99515   1.04380   0.89578
    6  C   1.07073   1.02767   1.00005   1.15479
    7  O   1.83670   1.28940   1.44833   1.88978
    8  C   1.13216   0.90881   0.92806   0.68137
    9  O   1.87933   1.73719   1.45003   1.37326
   10  H   0.82436
   11  H   0.81688
   12  H   0.83568
   13  H   0.84973
   14  H   0.66909
   15  H   0.89131

 **********************
 *                    *
 * JOB ENDED NORMALLY *
 *                    *
 **********************



 TOTAL JOB TIME:             0.37 SECONDS

 == MOPAC DONE ==
