 *******************************************************************************
 ** Site#: 32691        For non-commercial use only    Version 19.179W 32BITS **
 *******************************************************************************
 ** Cite this program as: MOPAC2016, Version: 19.179W, James J. P. Stewart,   **
 ** Stewart Computational Chemistry, web: HTTP://OpenMOPAC.net. Days left: 250**
 *******************************************************************************
 **                                                                           **
 **                                MOPAC2016                                  **
 **                                                                           **
 *******************************************************************************

                              PM7 CALCULATION RESULTS

 *******************************************************************************
 *  CALCULATION DONE:                                Mon Oct 21 13:56:05 2019  *
 *  T=         - A TIME OF 172800.0 SECONDS REQUESTED
 *  DUMP=N     - RESTART FILE WRITTEN EVERY  7200.000 SECONDS
 *******************************************************************************

 Isovanillin2.mop

  ATOM    CHEMICAL      BOND LENGTH      BOND ANGLE     TWIST ANGLE 
 NUMBER    SYMBOL       (ANGSTROMS)      (DEGREES)       (DEGREES) 
   (I)                     NA:I           NB:NA:I       NC:NB:NA:I       NA    NB    NC 
     1       C          0.00000000       0.0000000       0.0000000        0     0     0
     2       C          1.34385900  *    0.0000000       0.0000000        1     0     0
     3       C          1.34325900  *  117.8233180  *    0.0000000        2     1     0
     4       C          1.34202000  *  120.2961040  *    0.0133750  *     3     2     1
     5       C          1.34759300  *  122.2843600  *    0.0711400  *     4     3     2
     6       C          1.34444500  *  121.9496180  *   -0.0198970  *     1     2     3
     7       O          1.36215600  *  120.1256410  *  179.9715650  *     6     1     2
     8       O          1.37463300  *  125.0284450  * -179.9100180  *     5     4     3
     9       C          1.40812300  *  119.1623780  *    1.0705190  *     8     5     4
    10       C          1.36072100  *  120.6839620  * -179.9960300  *     2     1     6
    11       O          1.21147300  *  125.6849330  *  179.9798170  *    10     2     1
    12       H          1.10358100  *  120.6953810  *  179.9642970  *     1     2     3
    13       H          1.10304700  *  121.5754650  * -179.9738760  *     3     2     1
    14       H          1.10166900  *  116.8096750  * -179.9604270  *     4     3     2
    15       H          0.97101900  *  109.2128250  * -179.9949960  *     7     6     1
    16       H          1.11281500  *  110.3156320  *   61.5900260  *     9     8     5
    17       H          1.11311400  *  107.7469660  *  179.4950630  *     9     8     5
    18       H          1.11277800  *  110.3348810  *  -62.6350000  *     9     8     5
    19       H          1.11598400  *  115.2931070  *   -0.0142290  *    10     2     1
 


          CARTESIAN COORDINATES 

    NO.       ATOM           X           Y           Z

     1         C          0.0000      0.0000      0.0000
     2         C          1.3439      0.0000      0.0000
     3         C          1.9708      1.1880      0.0000
     4         C          1.2620      2.3275      0.0003
     5         C         -0.0855      2.3370      0.0020
     6         C         -0.7114      1.1408      0.0004
     7         O         -2.0729      1.0974     -0.0002
     8         O         -0.8666      3.4682      0.0006
     9         C         -0.2448      4.7313     -0.0259
    10         C          2.0382     -1.1702     -0.0005
    11         O          3.2451     -1.2758     -0.0009
    12         H         -0.5633     -0.9490     -0.0006
    13         H          3.0715      1.2602     -0.0004
    14         H          1.8345      3.2688     -0.0004
    15         H         -2.4215      2.0037      0.0001
    16         H          0.3559      4.8469     -0.9555
    17         H         -1.0462      5.5039     -0.0317
    18         H          0.3716      4.8781      0.8889
    19         H          1.4138     -2.0952     -0.0006

 General Reference for PM7:
 "Optimization of Parameters for Semiempirical Methods VI: More Modifications to the 
 NDDO Approximations and Re-optimization of Parameters", J. J. P. Stewart, J. Mol. Mod., 1:32, 19 (2013)
 http://www.springerlink.com/openurl.asp?genre=article&id=doi:10.1007/s00894-012-1667-x

           Empirical Formula: C8 H8 O3  =    19 atoms



      MOLECULAR POINT GROUP   :   Cs  


      RHF CALCULATION, NO. OF DOUBLY OCCUPIED LEVELS = 29


          Geometry optimization using EF

          DIAGONAL MATRIX USED AS START HESSIAN

 CYCLE:     1 TIME:   0.062 TIME LEFT:  2.00D  GRAD.:   553.064 HEAT: -62.31201
 CYCLE:     2 TIME:   0.094 TIME LEFT:  2.00D  GRAD.:   388.132 HEAT: -68.20507
 CYCLE:     3 TIME:   0.031 TIME LEFT:  2.00D  GRAD.:   183.029 HEAT: -80.18688
 CYCLE:     4 TIME:   0.031 TIME LEFT:  2.00D  GRAD.:    73.388 HEAT: -87.04520
 CYCLE:     5 TIME:   0.016 TIME LEFT:  2.00D  GRAD.:    73.337 HEAT: -87.32371
 CYCLE:     6 TIME:   0.016 TIME LEFT:  2.00D  GRAD.:    58.848 HEAT: -88.17849
 CYCLE:     7 TIME:   0.016 TIME LEFT:  2.00D  GRAD.:    54.185 HEAT: -88.41332
 CYCLE:     8 TIME:   0.012 TIME LEFT:  2.00D  GRAD.:    17.621 HEAT: -88.57126
 CYCLE:     9 TIME:   0.020 TIME LEFT:  2.00D  GRAD.:    24.820 HEAT: -88.61844
 CYCLE:    10 TIME:   0.016 TIME LEFT:  2.00D  GRAD.:     4.583 HEAT: -88.67352
 CYCLE:    11 TIME:   0.016 TIME LEFT:  2.00D  GRAD.:     2.477 HEAT: -88.69229
 CYCLE:    12 TIME:   0.016 TIME LEFT:  2.00D  GRAD.:     4.415 HEAT: -88.69673
 CYCLE:    13 TIME:   0.012 TIME LEFT:  2.00D  GRAD.:     0.706 HEAT: -88.69871

     GRADIENT =  0.70596 IS LESS THAN CUTOFF =  1.00000



 -------------------------------------------------------------------------------

 Isovanillin2.mop



     GEOMETRY OPTIMISED USING EIGENVECTOR FOLLOWING (EF).     
     SCF FIELD WAS ACHIEVED                                   


                              PM7 CALCULATION
                                                       MOPAC2016 (Version: 19.179W)
                                                       Mon Oct 21 13:56:05 2019
                                                       No. of days remaining = 250




          FINAL HEAT OF FORMATION =        -88.69872 KCAL/MOL =    -371.11543 KJ/MOL


          TOTAL ENERGY            =      -1975.71700 EV
          ELECTRONIC ENERGY       =      -9353.02362 EV  POINT GROUP:     Cs  
          CORE-CORE REPULSION     =       7377.30662 EV
          COSMO AREA              =        180.21 SQUARE ANGSTROMS
          COSMO VOLUME            =        177.71 CUBIC ANGSTROMS

          GRADIENT NORM           =          0.70596 = 0.16196 PER ATOM
          IONIZATION POTENTIAL    =          9.079730 EV
          HOMO LUMO ENERGIES (EV) =         -9.080 -0.680
          NO. OF FILLED LEVELS    =         29
          MOLECULAR WEIGHT        =        152.1494

          MOLECULAR DIMENSIONS (Angstroms)

            Atom       Atom       Distance
            H    19    H    17     8.09411
            H    15    H    13     5.07604
            H    18    H    16     1.81134


          SCF CALCULATIONS        =         17
 
          WALL-CLOCK TIME         =          0.391 SECONDS
          COMPUTATION TIME        =          0.624 SECONDS




  ATOM    CHEMICAL      BOND LENGTH      BOND ANGLE     TWIST ANGLE 
 NUMBER    SYMBOL       (ANGSTROMS)      (DEGREES)       (DEGREES) 
   (I)                     NA:I           NB:NA:I       NC:NB:NA:I       NA    NB    NC 
     1       C          0.00000000       0.0000000       0.0000000        0     0     0
     2       C          1.40049810  *    0.0000000       0.0000000        1     0     0
     3       C          1.39167016  *  120.7268452  *    0.0000000        2     1     0
     4       C          1.39765973  *  120.6542024  *    0.0906622  *     3     2     1
     5       C          1.38790335  *  119.0734955  *    0.0708952  *     4     3     2
     6       C          1.38711269  *  118.7843806  *   -0.0099934  *     1     2     3
     7       O          1.35844869  *  116.4663711  *  179.7532158  *     6     1     2
     8       O          1.35978228  *  126.6681562  *  179.6773692  *     5     4     3
     9       C          1.42200094  *  116.9742067  *    2.1564270  *     8     5     4
    10       C          1.47797976  *  119.5722659  * -179.9968172  *     2     1     6
    11       O          1.20856394  *  121.9353029  *  179.9556408  *    10     2     1
    12       H          1.08969959  *  121.6777278  *  179.8872022  *     1     2     3
    13       H          1.09432743  *  119.4138953  * -179.9215563  *     3     2     1
    14       H          1.08617225  *  119.6168933  *  179.9559117  *     4     3     2
    15       H          0.99128576  *  111.3575155  * -179.5091553  *     7     6     1
    16       H          1.09478165  *  110.7944756  *   61.7391107  *     9     8     5
    17       H          1.09936238  *  101.9736583  *  179.4968143  *     9     8     5
    18       H          1.09486708  *  110.7588659  *  -62.8149407  *     9     8     5
    19       H          1.09835512  *  117.6812066  *   -0.0517776  *    10     2     1

                             CARTESIAN COORDINATES

   1    C        0.000000000     0.000000000     0.000000000
   2    C        1.400498101     0.000000000     0.000000000
   3    C        2.111566034     1.196297719     0.000000000
   4    C        1.442113121     2.423197024     0.001902543
   5    C        0.054257590     2.434205990     0.005300165
   6    C       -0.667915245     1.215718225     0.000212044
   7    O       -2.025242473     1.160780942    -0.005035409
   8    O       -0.749081563     3.531285952     0.013643867
   9    C       -0.108487361     4.800135014    -0.028162935
  10    C        2.129912042    -1.285449096    -0.000295613
  11    O        3.337447996    -1.335279467    -0.001101140
  12    H       -0.572245804    -0.927349238    -0.001825668
  13    H        3.205605383     1.171223531    -0.001305113
  14    H        2.013900959     3.346684078     0.002598024
  15    H       -2.423269302     2.068617810    -0.012405766
  16    H        0.469420383     4.913541926    -0.951043409
  17    H       -0.965505067     5.488658249    -0.020810842
  18    H        0.513466325     4.950306805     0.860294137
  19    H        1.535786291    -2.209244597     0.000370911


           Empirical Formula: C8 H8 O3  =    19 atoms



      MOLECULAR POINT GROUP   :   Cs  


                  EIGENVALUES  
 -31.54498 -31.07727 -30.57535 -30.17120 -26.62839 -26.13909 -25.11081 -22.85208
 -21.44781 -20.37621 -18.75659 -17.94654 -16.51853 -16.46808 -16.19580 -15.37065
 -15.18084 -14.86961 -14.45676 -14.07008 -14.06014 -13.61561 -12.88121 -12.78329
 -12.32621 -12.02820 -10.22634 -10.03259  -9.07973  -0.68037  -0.09858   1.06436
   1.08987   2.26356   2.44756   3.23542   3.52375   3.94971   4.16142   4.43449
   4.46485   4.66243   4.90697   4.91019   5.07740   5.32611   5.37161   5.42805
   5.54049   5.71965   5.89041   5.96684


              NET ATOMIC CHARGES AND DIPOLE CONTRIBUTIONS

  ATOM NO.   TYPE          CHARGE      No. of ELECS.   s-Pop       p-Pop       
    1          C          -0.161041        4.1610     1.08008     3.08096
    2          C          -0.178377        4.1784     1.07247     3.10590
    3          C          -0.068864        4.0689     1.08701     2.98185
    4          C          -0.260490        4.2605     1.07560     3.18489
    5          C           0.152294        3.8477     1.08552     2.76219
    6          C           0.173781        3.8262     1.06996     2.75626
    7          O          -0.450142        6.4501     1.84130     4.60884
    8          O          -0.339247        6.3392     1.86311     4.47614
    9          C          -0.185149        4.1851     1.08873     3.09642
   10          C           0.349802        3.6502     1.13450     2.51570
   11          O          -0.437665        6.4377     1.87914     4.55853
   12          H           0.178328        0.8217     0.82167
   13          H           0.176091        0.8239     0.82391
   14          H           0.167909        0.8321     0.83209
   15          H           0.337357        0.6626     0.66264
   16          H           0.138465        0.8615     0.86154
   17          H           0.154951        0.8450     0.84505
   18          H           0.138432        0.8616     0.86157
   19          H           0.113566        0.8864     0.88643
 DIPOLE           X         Y         Z       TOTAL
 POINT-CHG.    -1.271     3.169    -0.079     3.415
 HYBRID        -0.571     0.611     0.008     0.836
 SUM           -1.841     3.780    -0.071     4.205


          ATOMIC ORBITAL ELECTRON POPULATIONS

     Atom    s        px        py        pz   
    1  C   1.08008   1.00089   1.05470   1.02537
    2  C   1.07247   0.98628   1.02390   1.09572
    3  C   1.08701   1.09039   0.95850   0.93296
    4  C   1.07560   0.99918   1.07882   1.10689
    5  C   1.08552   0.93756   0.85099   0.97364
    6  C   1.06996   0.79374   0.95715   1.00536
    7  O   1.84130   1.26196   1.43665   1.91023
    8  O   1.86311   1.37212   1.21286   1.89116
    9  C   1.08873   1.11294   0.83615   1.14733
   10  C   1.13450   0.86683   0.96972   0.67915
   11  O   1.87914   1.26796   1.92123   1.36933
   12  H   0.82167
   13  H   0.82391
   14  H   0.83209
   15  H   0.66264
   16  H   0.86154
   17  H   0.84505
   18  H   0.86157
   19  H   0.88643

 **********************
 *                    *
 * JOB ENDED NORMALLY *
 *                    *
 **********************



 TOTAL JOB TIME:             0.39 SECONDS

 == MOPAC DONE ==
