 *******************************************************************************
 ** Site#: 32691        For non-commercial use only    Version 19.179W 32BITS **
 *******************************************************************************
 ** Cite this program as: MOPAC2016, Version: 19.179W, James J. P. Stewart,   **
 ** Stewart Computational Chemistry, web: HTTP://OpenMOPAC.net. Days left: 253**
 *******************************************************************************
 **                                                                           **
 **                                MOPAC2016                                  **
 **                                                                           **
 *******************************************************************************

                              PM7 CALCULATION RESULTS

 *******************************************************************************
 *  CALCULATION DONE:                                Fri Oct 18 15:20:05 2019  *
 *  T=         - A TIME OF 172800.0 SECONDS REQUESTED
 *  DUMP=N     - RESTART FILE WRITTEN EVERY  7200.000 SECONDS
 *******************************************************************************

 Isovanillin.mop

  ATOM    CHEMICAL      BOND LENGTH      BOND ANGLE     TWIST ANGLE 
 NUMBER    SYMBOL       (ANGSTROMS)      (DEGREES)       (DEGREES) 
   (I)                     NA:I           NB:NA:I       NC:NB:NA:I       NA    NB    NC 
     1       C          0.00000000       0.0000000       0.0000000        0     0     0
     2       C          1.34479000  *    0.0000000       0.0000000        1     0     0
     3       C          1.35029200  *  120.4724260  *    0.0000000        2     1     0
     4       C          1.34754400  *  117.2263880  *    0.0067950  *     3     2     1
     5       C          1.34180800  *  122.2214260  *   -0.0052570  *     4     3     2
     6       C          1.34372200  *  121.8948850  *   -0.0038360  *     1     2     3
     7       C          1.36075000  *  121.6029160  *  179.9989510  *     6     1     2
     8       O          1.21153100  *  125.9758250  *   -0.0013190  *     7     6     1
     9       O          1.37475100  *  117.7815770  * -179.9980550  *     3     2     1
    10       C          1.40815600  *  119.1613070  * -179.9781920  *     9     3     2
    11       O          1.36252000  *  120.1521000  * -179.9975330  *     2     1     6
    12       H          1.10286200  *  117.1157020  *  179.9956370  *     1     2     3
    13       H          1.10162100  *  120.9690220  *  179.9963420  *     4     3     2
    14       H          1.10373100  *  118.3820880  * -179.9980840  *     5     4     3
    15       H          1.11613400  *  115.1484990  *  179.9994440  *     7     6     1
    16       H          1.11311500  *  107.7481910  *  179.9937880  *    10     9     3
    17       H          1.11279900  *  110.3273950  *  -62.1170860  *    10     9     3
    18       H          1.11280000  *  110.3269370  *   62.1040090  *    10     9     3
    19       H          0.97103100  *  109.1481600  *  179.9591970  *    11     2     1
 


          CARTESIAN COORDINATES 

    NO.       ATOM           X           Y           Z

     1         C          0.0000      0.0000      0.0000
     2         C          1.3448      0.0000      0.0000
     3         C          2.0296      1.1638      0.0000
     4         C          1.3095      2.3028      0.0001
     5         C         -0.0323      2.3009      0.0002
     6         C         -0.7100      1.1408      0.0001
     7         C         -2.0707      1.1339      0.0001
     8         O         -2.7774      0.1498     -0.0001
     9         O          3.4028      1.0992     -0.0000
    10         C          4.1459      2.2953      0.0004
    11         O          2.0292     -1.1782     -0.0001
    12         H         -0.5027     -0.9816     -0.0001
    13         H          1.8050      3.2867      0.0002
    14         H         -0.5583      3.2713      0.0003
    15         H         -2.5502      2.1418      0.0001
    16         H          5.2255      2.0241      0.0004
    17         H          3.9354      2.8816     -0.9217
    18         H          3.9352      2.8810      0.9229
    19         H          2.9824     -0.9928     -0.0008

 General Reference for PM7:
 "Optimization of Parameters for Semiempirical Methods VI: More Modifications to the 
 NDDO Approximations and Re-optimization of Parameters", J. J. P. Stewart, J. Mol. Mod., 1:32, 19 (2013)
 http://www.springerlink.com/openurl.asp?genre=article&id=doi:10.1007/s00894-012-1667-x

           Empirical Formula: C8 H8 O3  =    19 atoms



      MOLECULAR POINT GROUP   :   Cs  


      RHF CALCULATION, NO. OF DOUBLY OCCUPIED LEVELS = 29


          Geometry optimization using EF

          DIAGONAL MATRIX USED AS START HESSIAN

 CYCLE:     1 TIME:   0.047 TIME LEFT:  2.00D  GRAD.:   551.850 HEAT: -61.74569
 CYCLE:     2 TIME:   0.035 TIME LEFT:  2.00D  GRAD.:   395.115 HEAT: -66.88352
 CYCLE:     3 TIME:   0.031 TIME LEFT:  2.00D  GRAD.:   185.550 HEAT: -78.81500
 CYCLE:     4 TIME:   0.012 TIME LEFT:  2.00D  GRAD.:    77.255 HEAT: -86.07200
 CYCLE:     5 TIME:   0.016 TIME LEFT:  2.00D  GRAD.:    66.076 HEAT: -86.86158
 CYCLE:     6 TIME:   0.031 TIME LEFT:  2.00D  GRAD.:    69.079 HEAT: -87.34902
 CYCLE:     7 TIME:   0.016 TIME LEFT:  2.00D  GRAD.:    66.976 HEAT: -87.44236
 CYCLE:     8 TIME:   0.016 TIME LEFT:  2.00D  GRAD.:    75.572 HEAT: -87.55658
 CYCLE:     9 TIME:   0.016 TIME LEFT:  2.00D  GRAD.:    52.768 HEAT: -87.83253
 CYCLE:    10 TIME:   0.020 TIME LEFT:  2.00D  GRAD.:     5.929 HEAT: -87.97344
 CYCLE:    11 TIME:   0.012 TIME LEFT:  2.00D  GRAD.:     3.379 HEAT: -87.99208
 CYCLE:    12 TIME:   0.016 TIME LEFT:  2.00D  GRAD.:     2.014 HEAT: -88.00355
 CYCLE:    13 TIME:   0.016 TIME LEFT:  2.00D  GRAD.:     2.401 HEAT: -88.00662
 CYCLE:    14 TIME:   0.141 TIME LEFT:  2.00D  GRAD.:     0.699 HEAT: -88.00785

     GRADIENT =  0.69924 IS LESS THAN CUTOFF =  1.00000



 -------------------------------------------------------------------------------

 Isovanillin.mop



     GEOMETRY OPTIMISED USING EIGENVECTOR FOLLOWING (EF).     
     SCF FIELD WAS ACHIEVED                                   


                              PM7 CALCULATION
                                                       MOPAC2016 (Version: 19.179W)
                                                       Fri Oct 18 15:20:06 2019
                                                       No. of days remaining = 253




          FINAL HEAT OF FORMATION =        -88.00786 KCAL/MOL =    -368.22489 KJ/MOL


          TOTAL ENERGY            =      -1975.68709 EV
          ELECTRONIC ENERGY       =      -9361.62834 EV  POINT GROUP:     Cs  
          CORE-CORE REPULSION     =       7385.94125 EV
          COSMO AREA              =        180.20 SQUARE ANGSTROMS
          COSMO VOLUME            =        177.81 CUBIC ANGSTROMS

          GRADIENT NORM           =          0.69924 = 0.16042 PER ATOM
          IONIZATION POTENTIAL    =          9.068057 EV
          HOMO LUMO ENERGIES (EV) =         -9.068 -0.656
          NO. OF FILLED LEVELS    =         29
          MOLECULAR WEIGHT        =        152.1494

          MOLECULAR DIMENSIONS (Angstroms)

            Atom       Atom       Distance
            H    16    O     8     8.22961
            H    19    H    14     5.09292
            H    18    H    17     1.81057


          SCF CALCULATIONS        =         17
 
          WALL-CLOCK TIME         =          0.453 SECONDS
          COMPUTATION TIME        =          0.655 SECONDS




  ATOM    CHEMICAL      BOND LENGTH      BOND ANGLE     TWIST ANGLE 
 NUMBER    SYMBOL       (ANGSTROMS)      (DEGREES)       (DEGREES) 
   (I)                     NA:I           NB:NA:I       NC:NB:NA:I       NA    NB    NC 
     1       C          0.00000000       0.0000000       0.0000000        0     0     0
     2       C          1.38887711  *    0.0000000       0.0000000        1     0     0
     3       C          1.41417833  *  120.4057827  *    0.0000000        2     1     0
     4       C          1.38983649  *  120.2413413  *    0.1129453  *     3     2     1
     5       C          1.39602084  *  119.1752695  *   -0.0719875  *     4     3     2
     6       C          1.39841624  *  118.9074657  *   -0.0491864  *     1     2     3
     7       C          1.47878003  *  119.1357409  *  179.9881347  *     6     1     2
     8       O          1.20817712  *  122.1320275  *    0.0386463  *     7     6     1
     9       O          1.36021278  *  113.2383188  * -179.5713628  *     3     2     1
    10       C          1.42120901  *  117.1175769  * -178.5810302  *     9     3     2
    11       O          1.35771045  *  116.5383167  *  179.8336086  *     2     1     6
    12       H          1.09454721  *  120.4105767  *  179.9895213  *     1     2     3
    13       H          1.08578297  *  121.1389412  *  179.9686448  *     4     3     2
    14       H          1.08971598  *  119.2200658  *  179.9971218  *     5     4     3
    15       H          1.09840851  *  117.5369523  * -179.9541025  *     7     6     1
    16       H          1.09969204  *  101.9328293  *  179.9101637  *    10     9     3
    17       H          1.09459622  *  110.8627562  *  -62.4187905  *    10     9     3
    18       H          1.09458082  *  110.8486393  *   62.1787768  *    10     9     3
    19       H          0.99165547  *  111.3653322  * -179.5119009  *    11     2     1

                             CARTESIAN COORDINATES

   1    C        0.000000000     0.000000000     0.000000000
   2    C        1.388877107     0.000000000     0.000000000
   3    C        2.104622195     1.219675910     0.000000000
   4    C        1.423344368     2.431080218     0.002366890
   5    C        0.027330481     2.426753631     0.003204535
   6    C       -0.675989453     1.224175294     0.001050911
   7    C       -2.154757723     1.230067207     0.000788480
   8    O       -2.801424575     0.209521384     0.000383080
   9    O        3.454175712     1.049980094    -0.009350286
  10    C        4.254908844     2.223745375     0.021253285
  11    O        1.995496981    -1.214653787     0.002484716
  12    H       -0.554052107    -0.943959652    -0.000172638
  13    H        1.958145216     3.376020653     0.002909001
  14    H       -0.507575008     3.376149971     0.005107869
  15    H       -2.658689969     2.206055702     0.000852465
  16    H        5.271917221     1.805616449     0.007661445
  17    H        4.080240958     2.838077748    -0.867694272
  18    H        4.083016536     2.788664966     0.942896414
  19    H        2.983083483    -1.125242221     0.010169018


           Empirical Formula: C8 H8 O3  =    19 atoms



      MOLECULAR POINT GROUP   :   Cs  


                  EIGENVALUES  
 -31.52349 -31.07470 -30.53977 -30.17782 -26.51850 -26.15495 -25.29315 -22.64939
 -21.38927 -20.60061 -18.66169 -17.74078 -17.05627 -16.45989 -15.83904 -15.27362
 -15.04497 -14.84698 -14.65549 -14.04641 -13.87194 -13.78100 -12.88630 -12.75860
 -12.27916 -12.03964 -10.21474  -9.97552  -9.06806  -0.65602  -0.12046   1.07384
   1.10724   2.27410   2.50564   3.25721   3.50415   3.98194   4.17561   4.38438
   4.51558   4.66621   4.89573   4.90464   5.04234   5.32853   5.37684   5.44859
   5.55042   5.67309   5.73112   6.16009


              NET ATOMIC CHARGES AND DIPOLE CONTRIBUTIONS

  ATOM NO.   TYPE          CHARGE      No. of ELECS.   s-Pop       p-Pop       
    1          C          -0.123719        4.1237     1.08514     3.03858
    2          C           0.167566        3.8324     1.07107     2.76136
    3          C           0.146752        3.8532     1.08501     2.76824
    4          C          -0.252397        4.2524     1.07417     3.17823
    5          C          -0.108533        4.1085     1.08141     3.02713
    6          C          -0.173727        4.1737     1.07312     3.10061
    7          C           0.344492        3.6555     1.13394     2.52157
    8          O          -0.426455        6.4265     1.87937     4.54709
    9          O          -0.336736        6.3367     1.86303     4.47370
   10          C          -0.186401        4.1864     1.08830     3.09810
   11          O          -0.442543        6.4425     1.84166     4.60088
   12          H           0.199105        0.8009     0.80090
   13          H           0.164323        0.8357     0.83568
   14          H           0.153759        0.8462     0.84624
   15          H           0.109065        0.8909     0.89093
   16          H           0.156249        0.8438     0.84375
   17          H           0.136698        0.8633     0.86330
   18          H           0.136840        0.8632     0.86316
   19          H           0.335662        0.6643     0.66434
 DIPOLE           X         Y         Z       TOTAL
 POINT-CHG.     3.337     4.773     0.064     5.824
 HYBRID         0.799    -0.510    -0.005     0.948
 SUM            4.136     4.263     0.059     5.940


          ATOMIC ORBITAL ELECTRON POPULATIONS

     Atom    s        px        py        pz   
    1  C   1.08514   0.98270   1.07182   0.98407
    2  C   1.07107   0.93989   0.81533   1.00614
    3  C   1.08501   0.80768   0.98175   0.97881
    4  C   1.07417   1.02003   1.05376   1.10443
    5  C   1.08141   0.99669   1.05201   0.97842
    6  C   1.07312   1.02233   0.98798   1.09031
    7  C   1.13394   0.90550   0.93204   0.68403
    8  O   1.87937   1.71968   1.46464   1.36278
    9  O   1.86303   1.22423   1.35706   1.89241
   10  C   1.08830   1.00937   0.94251   1.14622
   11  O   1.84166   1.36258   1.32976   1.90853
   12  H   0.80090
   13  H   0.83568
   14  H   0.84624
   15  H   0.89093
   16  H   0.84375
   17  H   0.86330
   18  H   0.86316
   19  H   0.66434

 **********************
 *                    *
 * JOB ENDED NORMALLY *
 *                    *
 **********************



 TOTAL JOB TIME:             0.45 SECONDS

 == MOPAC DONE ==
