 *******************************************************************************
 ** Site#: 32691        For non-commercial use only    Version 19.179W 32BITS **
 *******************************************************************************
 ** Cite this program as: MOPAC2016, Version: 19.179W, James J. P. Stewart,   **
 ** Stewart Computational Chemistry, web: HTTP://OpenMOPAC.net. Days left: 246**
 *******************************************************************************
 **                                                                           **
 **                                MOPAC2016                                  **
 **                                                                           **
 *******************************************************************************

                              PM7 CALCULATION RESULTS

 *******************************************************************************
 *  CALCULATION DONE:                                Fri Oct 25 10:46:37 2019  *
 *  T=         - A TIME OF 172800.0 SECONDS REQUESTED
 *  DUMP=N     - RESTART FILE WRITTEN EVERY  7200.000 SECONDS
 *******************************************************************************

 methyl 4-formylbenzoate.mop

  ATOM    CHEMICAL      BOND LENGTH      BOND ANGLE     TWIST ANGLE 
 NUMBER    SYMBOL       (ANGSTROMS)      (DEGREES)       (DEGREES) 
   (I)                     NA:I           NB:NA:I       NC:NB:NA:I       NA    NB    NC 
     1       C          0.00000000       0.0000000       0.0000000        0     0     0
     2       C          1.34337700  *    0.0000000       0.0000000        1     0     0
     3       C          1.34702200  *  121.1637140  *    0.0000000        2     1     0
     4       C          1.34646000  *  117.7483470  *    0.0000090  *     3     2     1
     5       C          1.34296800  *  121.2040190  *    0.0000140  *     4     3     2
     6       C          1.34498800  *  120.8441230  *   -0.0000220  *     1     2     3
     7       C          1.36101400  *  121.3377380  *  179.9999870  *     6     1     2
     8       O          1.21157800  *  125.8633010  *   -0.0000120  *     7     6     1
     9       C          1.36898200  *  122.0740640  * -179.9999520  *     3     2     1
    10       O          1.37518300  *  120.5055080  *  179.9998310  *     9     3     2
    11       O          1.21635400  *  120.5134340  *   -0.0000090  *     9     3     2
    12       C          1.40829600  *  118.6677730  * -179.9990260  *    10     9     3
    13       H          1.10321500  *  117.8181570  *  179.9999380  *     1     2     3
    14       H          1.10290500  *  116.9331730  * -179.9999610  *     2     1     6
    15       H          1.10304800  *  121.5657570  * -179.9999740  *     4     3     2
    16       H          1.10384500  *  118.0889550  * -179.9999760  *     5     4     3
    17       H          1.11607200  *  115.2359270  * -179.9999900  *     7     6     1
    18       H          1.11294000  *  107.8299990  *  179.9989110  *    12    10     9
    19       H          1.11302500  *  110.2201000  *  -61.6435830  *    12    10     9
    20       H          1.11302500  *  110.2202100  *   61.6414150  *    12    10     9
 


          CARTESIAN COORDINATES 

    NO.       ATOM           X           Y           Z

     1         C          0.0000      0.0000      0.0000
     2         C          1.3434      0.0000      0.0000
     3         C          2.0404      1.1526      0.0000
     4         C          1.3452      2.3057      0.0000
     5         C          0.0022      2.3084      0.0000
     6         C         -0.6896      1.1548      0.0000
     7         C         -2.0505      1.1665      0.0000
     8         O         -2.7688      0.1908     -0.0000
     9         C          3.4093      1.1744     -0.0000
    10         O          4.0884      2.3702     -0.0000
    11         O          4.0434      0.1364     -0.0000
    12         C          5.4965      2.3474     -0.0000
    13         H         -0.5148     -0.9757     -0.0000
    14         H          1.8429     -0.9833     -0.0000
    15         H          1.8519      3.2855     -0.0000
    16         H         -0.5155      3.2833      0.0000
    17         H         -2.5177      2.1801      0.0000
    18         H          5.8544      3.4012     -0.0000
    19         H          5.8731      1.8451      0.9191
    20         H          5.8731      1.8451     -0.9191

 General Reference for PM7:
 "Optimization of Parameters for Semiempirical Methods VI: More Modifications to the 
 NDDO Approximations and Re-optimization of Parameters", J. J. P. Stewart, J. Mol. Mod., 1:32, 19 (2013)
 http://www.springerlink.com/openurl.asp?genre=article&id=doi:10.1007/s00894-012-1667-x

           Empirical Formula: C9 H8 O3  =    20 atoms



      MOLECULAR POINT GROUP   :   Cs  


      RHF CALCULATION, NO. OF DOUBLY OCCUPIED LEVELS = 31


          Geometry optimization using EF

          DIAGONAL MATRIX USED AS START HESSIAN

 CYCLE:     1 TIME:   0.078 TIME LEFT:  2.00D  GRAD.:   560.890 HEAT: -54.16284
 CYCLE:     2 TIME:   0.109 TIME LEFT:  2.00D  GRAD.:   397.698 HEAT: -61.51436
 CYCLE:     3 TIME:   0.016 TIME LEFT:  2.00D  GRAD.:   201.618 HEAT: -74.61045
 CYCLE:     4 TIME:   0.016 TIME LEFT:  2.00D  GRAD.:    57.743 HEAT: -84.63701
 CYCLE:     5 TIME:   0.016 TIME LEFT:  2.00D  GRAD.:    41.883 HEAT: -87.01425
 CYCLE:     6 TIME:   0.016 TIME LEFT:  2.00D  GRAD.:    62.364 HEAT: -87.44782
 CYCLE:     7 TIME:   0.016 TIME LEFT:  2.00D  GRAD.:    62.978 HEAT: -88.20959
 CYCLE:     8 TIME:   0.016 TIME LEFT:  2.00D  GRAD.:    47.615 HEAT: -88.45209
 CYCLE:     9 TIME:   0.016 TIME LEFT:  2.00D  GRAD.:    13.242 HEAT: -88.59813
 CYCLE:    10 TIME:   0.047 TIME LEFT:  2.00D  GRAD.:    13.742 HEAT: -88.63274
 CYCLE:    11 TIME:   0.016 TIME LEFT:  2.00D  GRAD.:     2.629 HEAT: -88.65742
 CYCLE:    12 TIME:   0.000 TIME LEFT:  2.00D  GRAD.:     2.166 HEAT: -88.66696
 CYCLE:    13 TIME:   0.016 TIME LEFT:  2.00D  GRAD.:     2.940 HEAT: -88.66887
 CYCLE:    14 TIME:   0.031 TIME LEFT:  2.00D  GRAD.:     0.594 HEAT: -88.66983

     GRADIENT =  0.59354 IS LESS THAN CUTOFF =  1.00000



 -------------------------------------------------------------------------------

 methyl 4-formylbenzoate.mop



     GEOMETRY OPTIMISED USING EIGENVECTOR FOLLOWING (EF).     
     SCF FIELD WAS ACHIEVED                                   


                              PM7 CALCULATION
                                                       MOPAC2016 (Version: 19.179W)
                                                       Fri Oct 25 10:46:38 2019
                                                       No. of days remaining = 246




          FINAL HEAT OF FORMATION =        -88.66983 KCAL/MOL =    -370.99458 KJ/MOL


          TOTAL ENERGY            =      -2098.81700 EV
          ELECTRONIC ENERGY       =     -10158.23679 EV  POINT GROUP:     Cs  
          CORE-CORE REPULSION     =       8059.41979 EV
          COSMO AREA              =        194.26 SQUARE ANGSTROMS
          COSMO VOLUME            =        192.06 CUBIC ANGSTROMS

          GRADIENT NORM           =          0.59354 = 0.13272 PER ATOM
          IONIZATION POTENTIAL    =         10.456023 EV
          HOMO LUMO ENERGIES (EV) =        -10.456 -1.315
          NO. OF FILLED LEVELS    =         31
          MOLECULAR WEIGHT        =        164.1604

          MOLECULAR DIMENSIONS (Angstroms)

            Atom       Atom       Distance
            H    18    O     8     9.15630
            H    16    H    14     4.93019
            H    20    H    19     1.79946


          SCF CALCULATIONS        =         19
 
          WALL-CLOCK TIME         =          0.422 SECONDS
          COMPUTATION TIME        =          0.671 SECONDS




  ATOM    CHEMICAL      BOND LENGTH      BOND ANGLE     TWIST ANGLE 
 NUMBER    SYMBOL       (ANGSTROMS)      (DEGREES)       (DEGREES) 
   (I)                     NA:I           NB:NA:I       NC:NB:NA:I       NA    NB    NC 
     1       C          0.00000000       0.0000000       0.0000000        0     0     0
     2       C          1.39289175  *    0.0000000       0.0000000        1     0     0
     3       C          1.39645827  *  119.4861362  *    0.0000000        2     1     0
     4       C          1.39631458  *  120.8049307  *    0.0167768  *     3     2     1
     5       C          1.39205737  *  119.5625281  *   -0.0084903  *     4     3     2
     6       C          1.39505842  *  119.8008674  *   -0.0153221  *     1     2     3
     7       C          1.48389908  *  119.4806625  * -179.9916272  *     6     1     2
     8       O          1.20701984  *  121.7281592  *    0.0096565  *     7     6     1
     9       C          1.47716813  *  117.7025267  * -179.9556418  *     3     2     1
    10       O          1.35899993  *  110.9659209  * -179.9658772  *     9     3     2
    11       O          1.20497279  *  126.8308693  *    0.0335497  *     9     3     2
    12       C          1.42517723  *  115.6927403  * -179.9480392  *    10     9     3
    13       H          1.09422964  *  120.5751981  *  179.9932957  *     1     2     3
    14       H          1.09415761  *  120.6068932  * -179.9990425  *     2     1     6
    15       H          1.09231323  *  120.2135417  *  179.9955971  *     4     3     2
    16       H          1.08956771  *  119.8047636  *  179.9965403  *     5     4     3
    17       H          1.09807880  *  117.6279139  * -179.9969301  *     7     6     1
    18       H          1.09613585  *  102.8398433  * -179.9836213  *    12    10     9
    19       H          1.09542019  *  110.1703456  *  -61.0235741  *    12    10     9
    20       H          1.09540155  *  110.1595853  *   61.0656183  *    12    10     9

                             CARTESIAN COORDINATES

   1    C        0.000000000     0.000000000     0.000000000
   2    C        1.392891745     0.000000000     0.000000000
   3    C        2.080246584     1.215581759     0.000000000
   4    C        1.388241371     2.428356709     0.000351172
   5    C       -0.003811440     2.424799668     0.000526045
   6    C       -0.693326035     1.210572961     0.000323732
   7    C       -2.177201926     1.202279998     0.000510283
   8    O       -2.806213880     0.172114548     0.000562403
   9    C        3.556698687     1.169605342    -0.001012530
  10    O        4.082229133     2.422880172    -0.000133336
  11    O        4.248655954     0.183120373    -0.002419521
  12    C        5.505524919     2.496058953    -0.002159384
  13    H       -0.556600451    -0.942090459    -0.000110235
  14    H        1.949976587    -0.941720387    -0.000267574
  15    H        1.935677470     3.373587853     0.000420407
  16    H       -0.547790860     3.368856913     0.000857164
  17    H       -2.691840568     2.172292406     0.000712370
  18    H        5.693920345     3.575882478    -0.000701945
  19    H        5.909659191     2.016786855     0.896127398
  20    H        5.906743062     2.019798080    -0.903327594


           Empirical Formula: C9 H8 O3  =    20 atoms



      MOLECULAR POINT GROUP   :   Cs  


                  EIGENVALUES  
 -31.77104 -31.53395 -31.01431 -30.26363 -27.62512 -26.65529 -25.27886 -23.70091
 -21.93984 -20.99274 -20.20127 -18.45814 -16.92388 -16.86819 -16.52338 -15.86297
 -15.53847 -14.98510 -14.97859 -14.80193 -14.34039 -14.28174 -13.39976 -13.38132
 -13.03738 -12.52933 -11.42976 -11.10422 -10.55468 -10.54080 -10.45602  -1.31523
  -0.37175   0.41416   1.25120   1.37636   2.10432   2.86851   3.21028   3.56382
   3.84488   4.05426   4.30565   4.39447   4.47906   4.69729   4.95877   5.06346
   5.16467   5.21558   5.28397   5.37154   5.56399   5.67223   5.77413   5.88177


              NET ATOMIC CHARGES AND DIPOLE CONTRIBUTIONS

  ATOM NO.   TYPE          CHARGE      No. of ELECS.   s-Pop       p-Pop       
    1          C          -0.101413        4.1014     1.09028     3.01113
    2          C          -0.106247        4.1062     1.09161     3.01464
    3          C          -0.108485        4.1085     1.07299     3.03550
    4          C          -0.103177        4.1032     1.08792     3.01526
    5          C          -0.138381        4.1384     1.08537     3.05302
    6          C          -0.125115        4.1251     1.08356     3.04155
    7          C           0.327468        3.6725     1.13807     2.53446
    8          O          -0.412536        6.4125     1.87937     4.53316
    9          C           0.587314        3.4127     1.11160     2.30109
   10          O          -0.407393        6.4074     1.86677     4.54062
   11          O          -0.486052        6.4861     1.87805     4.60801
   12          C          -0.165945        4.1659     1.08686     3.07908
   13          H           0.180457        0.8195     0.81954
   14          H           0.181180        0.8188     0.81882
   15          H           0.173366        0.8266     0.82663
   16          H           0.157826        0.8422     0.84217
   17          H           0.115011        0.8850     0.88499
   18          H           0.146400        0.8536     0.85360
   19          H           0.142886        0.8571     0.85711
   20          H           0.142835        0.8572     0.85716
 DIPOLE           X         Y         Z       TOTAL
 POINT-CHG.     0.847     3.727    -0.000     3.822
 HYBRID         0.107    -0.185     0.000     0.214
 SUM            0.954     3.542    -0.000     3.668


          ATOMIC ORBITAL ELECTRON POPULATIONS

     Atom    s        px        py        pz   
    1  C   1.09028   1.00060   1.06132   0.94921
    2  C   1.09161   1.00883   1.05457   0.95124
    3  C   1.07299   0.97342   1.00538   1.05671
    4  C   1.08792   1.00359   1.05591   0.95576
    5  C   1.08537   1.01166   1.05147   0.98988
    6  C   1.08356   1.01745   0.99694   1.02717
    7  C   1.13807   0.91206   0.93485   0.68755
    8  O   1.87937   1.73018   1.45316   1.34983
    9  C   1.11160   0.85994   0.75967   0.68148
   10  O   1.86677   1.30084   1.39452   1.84526
   11  O   1.87805   1.66397   1.44485   1.49919
   12  C   1.08686   0.77832   1.14189   1.15887
   13  H   0.81954
   14  H   0.81882
   15  H   0.82663
   16  H   0.84217
   17  H   0.88499
   18  H   0.85360
   19  H   0.85711
   20  H   0.85716

 **********************
 *                    *
 * JOB ENDED NORMALLY *
 *                    *
 **********************



 TOTAL JOB TIME:             0.44 SECONDS

 == MOPAC DONE ==
