 *******************************************************************************
 ** Site#: 32691        For non-commercial use only    Version 19.179W 32BITS **
 *******************************************************************************
 ** Cite this program as: MOPAC2016, Version: 19.179W, James J. P. Stewart,   **
 ** Stewart Computational Chemistry, web: HTTP://OpenMOPAC.net. Days left: 247**
 *******************************************************************************
 **                                                                           **
 **                                MOPAC2016                                  **
 **                                                                           **
 *******************************************************************************

                              PM7 CALCULATION RESULTS

 *******************************************************************************
 *  CALCULATION DONE:                                Thu Oct 24 11:49:31 2019  *
 *  T=         - A TIME OF 172800.0 SECONDS REQUESTED
 *  DUMP=N     - RESTART FILE WRITTEN EVERY  7200.000 SECONDS
 *******************************************************************************

 o-vanillin2.mop

  ATOM    CHEMICAL      BOND LENGTH      BOND ANGLE     TWIST ANGLE 
 NUMBER    SYMBOL       (ANGSTROMS)      (DEGREES)       (DEGREES) 
   (I)                     NA:I           NB:NA:I       NC:NB:NA:I       NA    NB    NC 
     1       C          0.00000000       0.0000000       0.0000000        0     0     0
     2       C          1.34701000  *    0.0000000       0.0000000        1     0     0
     3       C          1.33810800  *  121.6165600  *    0.0000000        2     1     0
     4       C          1.33781200  *  119.4193260  *   -0.0201810  *     3     2     1
     5       C          1.34651600  *  120.6710410  *    0.0009700  *     4     3     2
     6       C          1.35595000  *  118.4937050  *    0.0421620  *     1     2     3
     7       O          1.36656700  *  116.3965180  *  179.9614540  *     6     1     2
     8       O          1.37762300  *  123.7853690  *  179.9611370  *     1     2     3
     9       C          1.40904700  *  119.3111920  *   -0.4115220  *     8     1     2
    10       C          1.36342700  *  117.1518740  *  179.9961690  *     5     4     3
    11       O          1.20949100  *  127.2962060  * -179.9774250  *    10     5     4
    12       H          1.10110300  *  121.6801780  * -179.9717420  *     2     1     6
    13       H          1.10328400  *  120.3203940  *  179.9826650  *     3     2     1
    14       H          1.10385200  *  117.1985460  * -179.9976560  *     4     3     2
    15       H          0.96433100  *  114.4559940  * -179.9866410  *     7     6     1
    16       H          1.11325100  *  107.7126680  * -179.8278270  *     9     8     1
    17       H          1.11289200  *  110.4183970  *  -62.0641790  *     9     8     1
    18       H          1.11287000  *  110.4362860  *   62.4185390  *     9     8     1
    19       H          1.11686900  *  115.4581100  *    0.0149660  *    10     5     4
 


          CARTESIAN COORDINATES 

    NO.       ATOM           X           Y           Z

     1         C          0.0000      0.0000      0.0000
     2         C          1.3470      0.0000      0.0000
     3         C          2.0485      1.1395      0.0000
     4         C          1.4006      2.3100     -0.0004
     5         C          0.0547      2.3501     -0.0008
     6         C         -0.6469      1.1917     -0.0009
     7         O         -2.0125      1.1417     -0.0017
     8         O         -0.7661     -1.1450     -0.0008
     9         C         -0.1285     -2.4015     -0.0105
    10         C         -0.5311      3.5813     -0.0011
    11         O         -1.7148      3.8297     -0.0011
    12         H          1.9253     -0.9370      0.0002
    13         H          3.1515      1.1145      0.0003
    14         H          2.0153      3.2269     -0.0004
    15         H         -2.4436      2.0043     -0.0025
    16         H         -0.9210     -3.1834     -0.0126
    17         H          0.4774     -2.5223     -0.9361
    18         H          0.4834     -2.5339      0.9096
    19         H          0.1733      4.4480     -0.0013

 General Reference for PM7:
 "Optimization of Parameters for Semiempirical Methods VI: More Modifications to the 
 NDDO Approximations and Re-optimization of Parameters", J. J. P. Stewart, J. Mol. Mod., 1:32, 19 (2013)
 http://www.springerlink.com/openurl.asp?genre=article&id=doi:10.1007/s00894-012-1667-x

           Empirical Formula: C8 H8 O3  =    19 atoms



      MOLECULAR POINT GROUP   :   Cs  


      RHF CALCULATION, NO. OF DOUBLY OCCUPIED LEVELS = 29


          Geometry optimization using EF

          DIAGONAL MATRIX USED AS START HESSIAN

 CYCLE:     1 TIME:   0.016 TIME LEFT:  2.00D  GRAD.:   455.712 HEAT: -64.69990
 CYCLE:     2 TIME:   0.062 TIME LEFT:  2.00D  GRAD.:   426.901 HEAT: -68.30597
 CYCLE:     3 TIME:   0.016 TIME LEFT:  2.00D  GRAD.:   181.611 HEAT: -81.06175
 CYCLE:     4 TIME:   0.031 TIME LEFT:  2.00D  GRAD.:    99.808 HEAT: -88.25951
 CYCLE:     5 TIME:   0.031 TIME LEFT:  2.00D  GRAD.:   110.382 HEAT: -89.03969
 CYCLE:     6 TIME:   0.016 TIME LEFT:  2.00D  GRAD.:    32.122 HEAT: -90.38034
 CYCLE:     7 TIME:   0.031 TIME LEFT:  2.00D  GRAD.:    36.547 HEAT: -90.70556
 CYCLE:     8 TIME:   0.016 TIME LEFT:  2.00D  GRAD.:    33.848 HEAT: -90.85310
 CYCLE:     9 TIME:   0.031 TIME LEFT:  2.00D  GRAD.:    15.566 HEAT: -90.96428
 CYCLE:    10 TIME:   0.016 TIME LEFT:  2.00D  GRAD.:    31.463 HEAT: -90.96483
 CYCLE:    11 TIME:   0.016 TIME LEFT:  2.00D  GRAD.:     6.791 HEAT: -91.02618
 CYCLE:    12 TIME:   0.016 TIME LEFT:  2.00D  GRAD.:     5.213 HEAT: -91.03271
 CYCLE:    13 TIME:   0.016 TIME LEFT:  2.00D  GRAD.:     0.762 HEAT: -91.03586

     GRADIENT =  0.76206 IS LESS THAN CUTOFF =  1.00000



 -------------------------------------------------------------------------------

 o-vanillin2.mop



     GEOMETRY OPTIMISED USING EIGENVECTOR FOLLOWING (EF).     
     SCF FIELD WAS ACHIEVED                                   


                              PM7 CALCULATION
                                                       MOPAC2016 (Version: 19.179W)
                                                       Thu Oct 24 11:49:31 2019
                                                       No. of days remaining = 247




          FINAL HEAT OF FORMATION =        -91.03586 KCAL/MOL =    -380.89404 KJ/MOL


          TOTAL ENERGY            =      -1975.72787 EV
          ELECTRONIC ENERGY       =      -9525.37955 EV  POINT GROUP:     Cs  
          CORE-CORE REPULSION     =       7549.65169 EV
          COSMO AREA              =        177.35 SQUARE ANGSTROMS
          COSMO VOLUME            =        175.31 CUBIC ANGSTROMS

          GRADIENT NORM           =          0.76206 = 0.17483 PER ATOM
          IONIZATION POTENTIAL    =          8.839591 EV
          HOMO LUMO ENERGIES (EV) =         -8.840 -0.831
          NO. OF FILLED LEVELS    =         29
          MOLECULAR WEIGHT        =        152.1494

          MOLECULAR DIMENSIONS (Angstroms)

            Atom       Atom       Distance
            H    19    H    16     7.74787
            H    15    H    13     5.69199
            H    17    H    18     1.81054


          SCF CALCULATIONS        =         18
 
          WALL-CLOCK TIME         =          0.344 SECONDS
          COMPUTATION TIME        =          0.546 SECONDS




  ATOM    CHEMICAL      BOND LENGTH      BOND ANGLE     TWIST ANGLE 
 NUMBER    SYMBOL       (ANGSTROMS)      (DEGREES)       (DEGREES) 
   (I)                     NA:I           NB:NA:I       NC:NB:NA:I       NA    NB    NC 
     1       C          0.00000000       0.0000000       0.0000000        0     0     0
     2       C          1.37821101  *    0.0000000       0.0000000        1     0     0
     3       C          1.41024280  *  119.9474858  *    0.0000000        2     1     0
     4       C          1.37681910  *  120.5959085  *    0.0130237  *     3     2     1
     5       C          1.41142998  *  120.5646667  *   -0.0059473  *     4     3     2
     6       C          1.43202007  *  119.7125466  *   -0.0245350  *     1     2     3
     7       O          1.33726022  *  116.3058135  * -179.9924379  *     6     1     2
     8       O          1.35883036  *  127.0188879  * -179.9594897  *     1     2     3
     9       C          1.42259454  *  116.2503242  *   -0.4252745  *     8     1     2
    10       C          1.46160738  *  119.8902111  *  179.9856115  *     5     4     3
    11       O          1.21831510  *  122.1006066  * -179.9814888  *    10     5     4
    12       H          1.08731861  *  121.2636472  *  179.9896996  *     2     1     6
    13       H          1.08794943  *  118.8361849  * -179.9891798  *     3     2     1
    14       H          1.08977877  *  120.2914204  *  179.9989211  *     4     3     2
    15       H          1.02098601  *  110.2940441  *  179.9787551  *     7     6     1
    16       H          1.09963771  *  101.7228039  * -179.8355824  *     9     8     1
    17       H          1.09393299  *  111.1338524  *  -62.3603876  *     9     8     1
    18       H          1.09394705  *  111.1302527  *   62.6876074  *     9     8     1
    19       H          1.09841967  *  118.5068567  *    0.0146802  *    10     5     4

                             CARTESIAN COORDINATES

   1    C        0.000000000     0.000000000     0.000000000
   2    C        1.378211009     0.000000000     0.000000000
   3    C        2.082212732     1.221951856     0.000000000
   4    C        1.405142370     2.420787323     0.000269389
   5    C       -0.006023669     2.448081711     0.000424275
   6    C       -0.709779128     1.243742249     0.000532591
   7    O       -2.044676203     1.164277267     0.000656781
   8    O       -0.818122224    -1.084940265     0.000767095
   9    C       -0.178268703    -2.355487080    -0.007804657
  10    C       -0.709759270     3.729117217     0.001028254
  11    O       -1.926031438     3.799640025     0.001514719
  12    H        1.942504221    -0.929427174    -0.000230908
  13    H        3.169957514     1.200851473    -0.000179981
  14    H        1.954176992     3.362158004     0.000285792
  15    H       -2.455071898     2.099150121     0.001398070
  16    H       -1.039416610    -3.039319713    -0.008363443
  17    H        0.416534298    -2.491431184    -0.915779320
  18    H        0.422635706    -2.500507121     0.894749064
  19    H       -0.116171349     4.653335344     0.001104664


           Empirical Formula: C8 H8 O3  =    19 atoms



      MOLECULAR POINT GROUP   :   Cs  


                  EIGENVALUES  
 -31.73125 -31.02274 -30.35927 -30.08594 -26.65439 -26.00476 -24.71760 -23.08564
 -21.28462 -20.69714 -18.29212 -17.75922 -16.84193 -16.16426 -15.99646 -15.66762
 -15.06653 -15.04293 -14.61803 -13.98147 -13.79338 -13.27262 -12.80820 -12.69575
 -12.33787 -11.90085 -10.58994 -10.02167  -8.83959  -0.83104   0.10530   0.83750
   1.50866   2.21883   2.50219   3.12737   3.68611   3.83661   4.25634   4.41370
   4.48935   4.71944   4.79817   5.03977   5.17211   5.25149   5.38206   5.64128
   5.72693   5.80843   5.93454   5.98330


              NET ATOMIC CHARGES AND DIPOLE CONTRIBUTIONS

  ATOM NO.   TYPE          CHARGE      No. of ELECS.   s-Pop       p-Pop       
    1          C           0.113808        3.8862     1.08048     2.80571
    2          C          -0.206298        4.2063     1.07977     3.12653
    3          C          -0.178640        4.1786     1.07481     3.10383
    4          C          -0.098244        4.0982     1.07897     3.01927
    5          C          -0.325777        4.3258     1.06413     3.26165
    6          C           0.310784        3.6892     1.08313     2.60608
    7          O          -0.430343        6.4303     1.84650     4.58385
    8          O          -0.252836        6.2528     1.87220     4.38063
    9          C          -0.219884        4.2199     1.08813     3.13176
   10          C           0.389010        3.6110     1.13264     2.47834
   11          O          -0.495765        6.4958     1.87880     4.61697
   12          H           0.162953        0.8370     0.83705
   13          H           0.155660        0.8443     0.84434
   14          H           0.152048        0.8480     0.84795
   15          H           0.372738        0.6273     0.62726
   16          H           0.159594        0.8404     0.84041
   17          H           0.134159        0.8658     0.86584
   18          H           0.134094        0.8659     0.86591
   19          H           0.122940        0.8771     0.87706
 DIPOLE           X         Y         Z       TOTAL
 POINT-CHG.     4.400    -1.260    -0.013     4.577
 HYBRID        -0.865    -0.013     0.002     0.865
 SUM            3.536    -1.274    -0.011     3.758


          ATOMIC ORBITAL ELECTRON POPULATIONS

     Atom    s        px        py        pz   
    1  C   1.08048   0.93166   0.86576   1.00829
    2  C   1.07977   0.99968   1.07307   1.05378
    3  C   1.07481   1.08260   0.97415   1.04708
    4  C   1.07897   0.98096   1.05827   0.98005
    5  C   1.06413   1.01760   1.01622   1.22783
    6  C   1.08313   0.80060   0.94415   0.86134
    7  O   1.84650   1.25338   1.48148   1.84898
    8  O   1.87220   1.31543   1.18321   1.88200
    9  C   1.08813   1.12075   0.86723   1.14377
   10  C   1.13264   0.85563   0.97206   0.65065
   11  O   1.87880   1.27935   1.90762   1.42999
   12  H   0.83705
   13  H   0.84434
   14  H   0.84795
   15  H   0.62726
   16  H   0.84041
   17  H   0.86584
   18  H   0.86591
   19  H   0.87706

 **********************
 *                    *
 * JOB ENDED NORMALLY *
 *                    *
 **********************



 TOTAL JOB TIME:             0.34 SECONDS

 == MOPAC DONE ==
