 *******************************************************************************
 ** Site#: 32691        For non-commercial use only    Version 19.179W 32BITS **
 *******************************************************************************
 ** Cite this program as: MOPAC2016, Version: 19.179W, James J. P. Stewart,   **
 ** Stewart Computational Chemistry, web: HTTP://OpenMOPAC.net. Days left: 253**
 *******************************************************************************
 **                                                                           **
 **                                MOPAC2016                                  **
 **                                                                           **
 *******************************************************************************

                              PM7 CALCULATION RESULTS

 *******************************************************************************
 *  CALCULATION DONE:                                Fri Oct 18 15:23:02 2019  *
 *  T=         - A TIME OF 172800.0 SECONDS REQUESTED
 *  DUMP=N     - RESTART FILE WRITTEN EVERY  7200.000 SECONDS
 *******************************************************************************

 o-vanillin.mop

  ATOM    CHEMICAL      BOND LENGTH      BOND ANGLE     TWIST ANGLE 
 NUMBER    SYMBOL       (ANGSTROMS)      (DEGREES)       (DEGREES) 
   (I)                     NA:I           NB:NA:I       NC:NB:NA:I       NA    NB    NC 
     1       C          0.00000000       0.0000000       0.0000000        0     0     0
     2       C          1.33870100  *    0.0000000       0.0000000        1     0     0
     3       C          1.33826800  *  119.5929400  *    0.0000000        2     1     0
     4       C          1.34609900  *  120.4407820  *    0.0015780  *     3     2     1
     5       C          1.35270900  *  119.4471620  *   -0.0000120  *     4     3     2
     6       C          1.34701300  *  121.6417200  *    0.0019020  *     1     2     3
     7       O          1.37612000  *  123.9770990  * -179.9966690  *     6     1     2
     8       C          1.40816400  *  119.4860570  *    0.0468070  *     7     6     1
     9       O          1.36408300  *  121.9400250  *  179.9980870  *     5     4     3
    10       C          1.36386800  *  117.9342700  *  179.9997420  *     4     3     2
    11       O          1.21139500  *  128.5211910  *  179.9981910  *    10     4     3
    12       H          1.10117500  *  116.7813830  * -179.9997260  *     1     2     3
    13       H          1.10331700  *  120.2472690  * -179.9979870  *     2     1     6
    14       H          1.10367500  *  117.4713730  * -179.9992850  *     3     2     1
    15       H          1.11312900  *  107.7176140  *  179.9812010  *     8     7     6
    16       H          1.11278700  *  110.3578330  *  -62.2094210  *     8     7     6
    17       H          1.11278900  *  110.3563800  *   62.1700160  *     8     7     6
    18       H          0.96991200  *  110.4681140  *  179.9834610  *     9     5     4
    19       H          1.11730800  *  114.7102100  *   -0.0008650  *    10     4     3
 


          CARTESIAN COORDINATES 

    NO.       ATOM           X           Y           Z

     1         C          0.0000      0.0000      0.0000
     2         C          1.3387      0.0000      0.0000
     3         C          1.9996      1.1637      0.0000
     4         C          1.3272      2.3299      0.0000
     5         C         -0.0254      2.3176      0.0001
     6         C         -0.7067      1.1468     -0.0000
     7         O         -2.0816      1.2028      0.0000
     8         C         -2.8241      0.0063      0.0011
     9         O         -0.7575      3.4686      0.0001
    10         C          2.0520      3.4852      0.0000
    11         O          1.6500      4.6280      0.0000
    12         H         -0.4962     -0.9831      0.0000
    13         H          1.8945     -0.9531     -0.0000
    14         H          3.1025      1.1228     -0.0000
    15         H         -3.9037      0.2776      0.0013
    16         H         -2.6150     -0.5799     -0.9213
    17         H         -2.6143     -0.5786      0.9243
    18         H         -1.7063      3.2671     -0.0001
    19         H          3.1600      3.3415      0.0000

 General Reference for PM7:
 "Optimization of Parameters for Semiempirical Methods VI: More Modifications to the 
 NDDO Approximations and Re-optimization of Parameters", J. J. P. Stewart, J. Mol. Mod., 1:32, 19 (2013)
 http://www.springerlink.com/openurl.asp?genre=article&id=doi:10.1007/s00894-012-1667-x

           Empirical Formula: C8 H8 O3  =    19 atoms



      MOLECULAR POINT GROUP   :   Cs  


      RHF CALCULATION, NO. OF DOUBLY OCCUPIED LEVELS = 29


          Geometry optimization using EF

          DIAGONAL MATRIX USED AS START HESSIAN

 CYCLE:     1 TIME:   0.016 TIME LEFT:  2.00D  GRAD.:   538.023 HEAT: -58.22562
 CYCLE:     2 TIME:   0.078 TIME LEFT:  2.00D  GRAD.:   385.084 HEAT: -63.99209
 CYCLE:     3 TIME:   0.047 TIME LEFT:  2.00D  GRAD.:   181.827 HEAT: -75.91446
 CYCLE:     4 TIME:   0.078 TIME LEFT:  2.00D  GRAD.:    71.728 HEAT: -82.98047
 CYCLE:     5 TIME:   0.031 TIME LEFT:  2.00D  GRAD.:    67.818 HEAT: -83.52349
 CYCLE:     6 TIME:   0.016 TIME LEFT:  2.00D  GRAD.:    63.838 HEAT: -83.96175
 CYCLE:     7 TIME:   0.012 TIME LEFT:  2.00D  GRAD.:    48.043 HEAT: -84.36359
 CYCLE:     8 TIME:   0.020 TIME LEFT:  2.00D  GRAD.:    13.359 HEAT: -84.45809
 CYCLE:     9 TIME:   0.016 TIME LEFT:  2.00D  GRAD.:    26.763 HEAT: -84.50217
 CYCLE:    10 TIME:   0.012 TIME LEFT:  2.00D  GRAD.:     3.794 HEAT: -84.55490
 CYCLE:    11 TIME:   0.020 TIME LEFT:  2.00D  GRAD.:     2.373 HEAT: -84.56829
 CYCLE:    12 TIME:   0.012 TIME LEFT:  2.00D  GRAD.:     1.266 HEAT: -84.57548
 CYCLE:    13 TIME:   0.020 TIME LEFT:  2.00D  GRAD.:     1.002 HEAT: -84.57772
 CYCLE:    14 TIME:   0.016 TIME LEFT:  2.00D  GRAD.:     1.126 HEAT: -84.57989
 CYCLE:    15 TIME:   0.012 TIME LEFT:  2.00D  GRAD.:     1.178 HEAT: -84.58174
 CYCLE:    16 TIME:   0.000 TIME LEFT:  2.00D  GRAD.:     1.020 HEAT: -84.58444
 CYCLE:    17 TIME:   0.020 TIME LEFT:  2.00D  GRAD.:     1.250 HEAT: -84.58953
 CYCLE:    18 TIME:   0.012 TIME LEFT:  2.00D  GRAD.:     1.146 HEAT: -84.59424
 CYCLE:    19 TIME:   0.016 TIME LEFT:  2.00D  GRAD.:     0.999 HEAT: -84.60092

     GRADIENT =  0.99921 IS LESS THAN CUTOFF =  1.00000



 -------------------------------------------------------------------------------

 o-vanillin.mop



     GEOMETRY OPTIMISED USING EIGENVECTOR FOLLOWING (EF).     
     SCF FIELD WAS ACHIEVED                                   


                              PM7 CALCULATION
                                                       MOPAC2016 (Version: 19.179W)
                                                       Fri Oct 18 15:23:02 2019
                                                       No. of days remaining = 253




          FINAL HEAT OF FORMATION =        -84.60092 KCAL/MOL =    -353.97027 KJ/MOL


          TOTAL ENERGY            =      -1975.53394 EV
          ELECTRONIC ENERGY       =      -9506.93434 EV  POINT GROUP:     C1  
          CORE-CORE REPULSION     =       7531.40040 EV
          COSMO AREA              =        178.43 SQUARE ANGSTROMS
          COSMO VOLUME            =        176.11 CUBIC ANGSTROMS

          GRADIENT NORM           =          0.99921 = 0.22923 PER ATOM
          IONIZATION POTENTIAL    =          8.972034 EV
          HOMO LUMO ENERGIES (EV) =         -8.972 -0.596
          NO. OF FILLED LEVELS    =         29
          MOLECULAR WEIGHT        =        152.1494

          MOLECULAR DIMENSIONS (Angstroms)

            Atom       Atom       Distance
            H    19    H    15     7.73553
            H    18    H    13     5.45450
            H    16    H    17     1.79906


          SCF CALCULATIONS        =         22
 
          WALL-CLOCK TIME         =          0.484 SECONDS
          COMPUTATION TIME        =          0.733 SECONDS




  ATOM    CHEMICAL      BOND LENGTH      BOND ANGLE     TWIST ANGLE 
 NUMBER    SYMBOL       (ANGSTROMS)      (DEGREES)       (DEGREES) 
   (I)                     NA:I           NB:NA:I       NC:NB:NA:I       NA    NB    NC 
     1       C          0.00000000       0.0000000       0.0000000        0     0     0
     2       C          1.40443732  *    0.0000000       0.0000000        1     0     0
     3       C          1.38290722  *  120.5546502  *    0.0000000        2     1     0
     4       C          1.40649874  *  120.9804053  *    0.2582495  *     3     2     1
     5       C          1.39221410  *  118.8034544  *   -0.0367666  *     4     3     2
     6       C          1.38003102  *  119.1304447  *   -0.0912273  *     1     2     3
     7       O          1.36498700  *  126.7506859  *  178.9868269  *     6     1     2
     8       C          1.41965278  *  116.8711022  *    7.1235464  *     7     6     1
     9       O          1.34666865  *  118.1331837  *  179.5533878  *     5     4     3
    10       C          1.47694146  *  118.9792209  *  179.7657357  *     4     3     2
    11       O          1.20570287  *  123.8174884  *  179.9808573  *    10     4     3
    12       H          1.08670006  *  119.4134686  *  179.7510515  *     1     2     3
    13       H          1.08800683  *  119.1057916  *  179.9584999  *     2     1     6
    14       H          1.09051845  *  119.8493250  * -179.7225008  *     3     2     1
    15       H          1.09933519  *  102.0393705  *  179.4409256  *     8     7     6
    16       H          1.09485036  *  110.9564381  *  -62.9367560  *     8     7     6
    17       H          1.09480040  *  110.8787953  *   61.5703890  *     8     7     6
    18       H          0.99721697  *  111.2995711  * -178.1489993  *     9     5     4
    19       H          1.10003403  *  116.0180774  *   -0.0202913  *    10     4     3

                             CARTESIAN COORDINATES

   1    C        0.000000000     0.000000000     0.000000000
   2    C        1.404437321     0.000000000     0.000000000
   3    C        2.107452003     1.190883178     0.000000000
   4    C        1.437095743     2.427342493     0.005435124
   5    C        0.044913650     2.435563501     0.010074812
   6    C       -0.671798550     1.205474449     0.001919378
   7    O       -2.024581650     1.386594470    -0.017131223
   8    C       -2.829461550     0.224720337     0.115650038
   9    O       -0.583003322     3.626793288     0.024508563
  10    C        2.231879863     3.672191386     0.010485286
  11    O        1.748672881     4.776822674     0.014973050
  12    H       -0.533687678    -0.946613737    -0.004113034
  13    H        1.933669630    -0.950616295    -0.000825043
  14    H        3.197878267     1.177464607    -0.004580980
  15    H       -3.845068896     0.643994349     0.079748976
  16    H       -2.669290230    -0.460547872    -0.723069189
  17    H       -2.648524650    -0.267542136     1.076653377
  18    H       -1.573290865     3.513907353     0.056587099
  19    H        3.324759352     3.546935485     0.009990601


           Empirical Formula: C8 H8 O3  =    19 atoms



      MOLECULAR POINT GROUP   :   C1  


                  EIGENVALUES  
 -31.49437 -30.82346 -30.36493 -30.31148 -26.62119 -26.02082 -24.85701 -22.89335
 -21.57440 -19.98979 -18.77108 -17.57442 -16.83056 -16.35512 -16.00377 -15.48466
 -14.88836 -14.84166 -14.55779 -13.70249 -13.59712 -13.43237 -12.73337 -12.62114
 -12.44014 -11.99263  -9.93854  -9.88292  -8.97203  -0.59622   0.03936   1.19455
   1.24491   2.32903   2.51159   3.24336   3.84645   3.90445   4.18377   4.48392
   4.66931   4.70364   4.99011   5.05819   5.14151   5.39778   5.51744   5.57211
   5.64468   5.74774   5.82848   5.91969


              NET ATOMIC CHARGES AND DIPOLE CONTRIBUTIONS

  ATOM NO.   TYPE          CHARGE      No. of ELECS.   s-Pop       p-Pop       
    1          C          -0.190970        4.1910     1.07936     3.11161
    2          C          -0.180054        4.1801     1.07541     3.10465
    3          C          -0.107773        4.1078     1.08226     3.02551
    4          C          -0.238067        4.2381     1.07096     3.16711
    5          C           0.265113        3.7349     1.08001     2.65487
    6          C           0.080967        3.9190     1.07985     2.83918
    7          O          -0.342502        6.3425     1.86374     4.47876
    8          C          -0.183185        4.1832     1.08727     3.09592
    9          O          -0.383157        6.3832     1.84448     4.53867
   10          C           0.347642        3.6524     1.12788     2.52448
   11          O          -0.399806        6.3998     1.87914     4.52067
   12          H           0.161340        0.8387     0.83866
   13          H           0.156204        0.8438     0.84380
   14          H           0.154954        0.8450     0.84505
   15          H           0.155298        0.8447     0.84470
   16          H           0.134380        0.8656     0.86562
   17          H           0.135158        0.8648     0.86484
   18          H           0.328509        0.6715     0.67149
   19          H           0.105949        0.8941     0.89405
 DIPOLE           X         Y         Z       TOTAL
 POINT-CHG.    -0.575    -5.228     0.256     5.266
 HYBRID        -0.968     0.386    -0.020     1.042
 SUM           -1.542    -4.842     0.237     5.087


          ATOMIC ORBITAL ELECTRON POPULATIONS

     Atom    s        px        py        pz   
    1  C   1.07936   1.01995   1.04992   1.04173
    2  C   1.07541   0.99528   1.06268   1.04669
    3  C   1.08226   1.07716   0.97090   0.97746
    4  C   1.07096   0.98693   1.02954   1.15064
    5  C   1.08001   0.92948   0.82036   0.90503
    6  C   1.07985   0.81307   0.98393   1.04218
    7  O   1.86374   1.21914   1.36172   1.89790
    8  C   1.08727   1.00728   0.94687   1.14177
    9  O   1.84448   1.34791   1.31965   1.87112
   10  C   1.12788   0.97773   0.84757   0.69917
   11  O   1.87914   1.82398   1.34727   1.34942
   12  H   0.83866
   13  H   0.84380
   14  H   0.84505
   15  H   0.84470
   16  H   0.86562
   17  H   0.86484
   18  H   0.67149
   19  H   0.89405

 **********************
 *                    *
 * JOB ENDED NORMALLY *
 *                    *
 **********************



 TOTAL JOB TIME:             0.48 SECONDS

 == MOPAC DONE ==
