 *******************************************************************************
 ** Site#: 32691        For non-commercial use only    Version 19.179W 32BITS **
 *******************************************************************************
 ** Cite this program as: MOPAC2016, Version: 19.179W, James J. P. Stewart,   **
 ** Stewart Computational Chemistry, web: HTTP://OpenMOPAC.net. Days left: 246**
 *******************************************************************************
 **                                                                           **
 **                                MOPAC2016                                  **
 **                                                                           **
 *******************************************************************************

                              PM7 CALCULATION RESULTS

 *******************************************************************************
 *  CALCULATION DONE:                                Fri Oct 25 10:34:28 2019  *
 *  T=         - A TIME OF 172800.0 SECONDS REQUESTED
 *  DUMP=N     - RESTART FILE WRITTEN EVERY  7200.000 SECONDS
 *******************************************************************************

 Terephthalaldehyde.mop

  ATOM    CHEMICAL      BOND LENGTH      BOND ANGLE     TWIST ANGLE 
 NUMBER    SYMBOL       (ANGSTROMS)      (DEGREES)       (DEGREES) 
   (I)                     NA:I           NB:NA:I       NC:NB:NA:I       NA    NB    NC 
     1       C          0.00000000       0.0000000       0.0000000        0     0     0
     2       C          1.34572800  *    0.0000000       0.0000000        1     0     0
     3       C          1.34305700  *  120.8527430  *    0.0000000        2     1     0
     4       C          1.34558400  *  120.7576910  *   -0.0002570  *     3     2     1
     5       C          1.34573000  *  118.3895690  *   -0.0007230  *     4     3     2
     6       C          1.34558600  *  118.3895670  *    0.0009790  *     1     2     3
     7       C          1.36109700  *  120.3794450  * -179.9989950  *     1     2     3
     8       O          1.21153300  *  125.6817920  *  179.9992390  *     7     1     2
     9       C          1.36109700  *  121.2310310  *  179.9992510  *     4     3     2
    10       O          1.21153300  *  125.6817310  *   -0.0007140  *     9     4     3
    11       H          1.10381400  *  121.1076270  * -179.9996030  *     2     1     6
    12       H          1.10303900  *  117.7384700  *  179.9994450  *     3     2     1
    13       H          1.10381400  *  121.1075660  * -179.9996010  *     5     4     3
    14       H          1.10303900  *  121.5037730  *  179.9995770  *     6     1     2
    15       H          1.11601300  *  115.3148580  *   -0.0003970  *     7     1     2
    16       H          1.11601300  *  115.3149090  *  179.9996470  *     9     4     3
 


          CARTESIAN COORDINATES 

    NO.       ATOM           X           Y           Z

     1         C          0.0000      0.0000      0.0000
     2         C          1.3457      0.0000      0.0000
     3         C          2.0345      1.1530      0.0000
     4         C          1.3947      2.3368     -0.0000
     5         C          0.0490      2.3368     -0.0000
     6         C         -0.6398      1.1838     -0.0000
     7         C         -0.6883     -1.1742      0.0000
     8         O         -1.8947     -1.2862      0.0000
     9         C          2.0831      3.5110      0.0000
    10         O          3.2894      3.6229      0.0000
    11         H          1.9160     -0.9451      0.0000
    12         H          3.1359      1.0931      0.0000
    13         H         -0.5213      3.2818     -0.0000
    14         H         -1.7412      1.2437     -0.0000
    15         H         -0.0593     -2.0961      0.0000
    16         H          1.4541      4.4328     -0.0000

 General Reference for PM7:
 "Optimization of Parameters for Semiempirical Methods VI: More Modifications to the 
 NDDO Approximations and Re-optimization of Parameters", J. J. P. Stewart, J. Mol. Mod., 1:32, 19 (2013)
 http://www.springerlink.com/openurl.asp?genre=article&id=doi:10.1007/s00894-012-1667-x

           Empirical Formula: C8 H6 O2  =    16 atoms



      MOLECULAR POINT GROUP   :   C2h 


      RHF CALCULATION, NO. OF DOUBLY OCCUPIED LEVELS = 25


          Geometry optimization using EF

          DIAGONAL MATRIX USED AS START HESSIAN

 CYCLE:     1 TIME:   0.047 TIME LEFT:  2.00D  GRAD.:   520.680 HEAT: -1.477707
 CYCLE:     2 TIME:   0.078 TIME LEFT:  2.00D  GRAD.:   405.576 HEAT: -9.482803
 CYCLE:     3 TIME:   0.016 TIME LEFT:  2.00D  GRAD.:   197.039 HEAT: -23.00775
 CYCLE:     4 TIME:   0.016 TIME LEFT:  2.00D  GRAD.:    45.665 HEAT: -32.59984
 CYCLE:     5 TIME:   0.016 TIME LEFT:  2.00D  GRAD.:    40.912 HEAT: -33.71501
 CYCLE:     6 TIME:   0.031 TIME LEFT:  2.00D  GRAD.:    27.777 HEAT: -34.02467
 CYCLE:     7 TIME:   0.016 TIME LEFT:  2.00D  GRAD.:    20.186 HEAT: -34.10440
 CYCLE:     8 TIME:   0.016 TIME LEFT:  2.00D  GRAD.:    26.680 HEAT: -34.19893
 CYCLE:     9 TIME:   0.016 TIME LEFT:  2.00D  GRAD.:     5.530 HEAT: -34.24278
 CYCLE:    10 TIME:   0.016 TIME LEFT:  2.00D  GRAD.:    12.679 HEAT: -34.25566
 CYCLE:    11 TIME:   0.000 TIME LEFT:  2.00D  GRAD.:     5.119 HEAT: -34.26778
 CYCLE:    12 TIME:   0.016 TIME LEFT:  2.00D  GRAD.:     3.523 HEAT: -34.27012
 CYCLE:    13 TIME:   0.016 TIME LEFT:  2.00D  GRAD.:     0.521 HEAT: -34.27182

     GRADIENT =  0.52124 IS LESS THAN CUTOFF =  1.00000



 -------------------------------------------------------------------------------

 Terephthalaldehyde.mop



     GEOMETRY OPTIMISED USING EIGENVECTOR FOLLOWING (EF).     
     SCF FIELD WAS ACHIEVED                                   


                              PM7 CALCULATION
                                                       MOPAC2016 (Version: 19.179W)
                                                       Fri Oct 25 10:34:28 2019
                                                       No. of days remaining = 246




          FINAL HEAT OF FORMATION =        -34.27182 KCAL/MOL =    -143.39328 KJ/MOL


          TOTAL ENERGY            =      -1653.21940 EV
          ELECTRONIC ENERGY       =      -7228.29331 EV  POINT GROUP:     C2h 
          CORE-CORE REPULSION     =       5575.07391 EV
          COSMO AREA              =        165.48 SQUARE ANGSTROMS
          COSMO VOLUME            =        161.04 CUBIC ANGSTROMS

          GRADIENT NORM           =          0.52124 = 0.13031 PER ATOM
          IONIZATION POTENTIAL    =         10.455743 EV
          HOMO LUMO ENERGIES (EV) =        -10.456 -1.382
          NO. OF FILLED LEVELS    =         25
          MOLECULAR WEIGHT        =        134.1342

          MOLECULAR DIMENSIONS (Angstroms)

            Atom       Atom       Distance
            O    10    O     8     7.30071
            H    13    H    11     4.84517
            H    12    H    16     0.00076


          SCF CALCULATIONS        =         17
 
          WALL-CLOCK TIME         =          0.312 SECONDS
          COMPUTATION TIME        =          0.468 SECONDS




  ATOM    CHEMICAL      BOND LENGTH      BOND ANGLE     TWIST ANGLE 
 NUMBER    SYMBOL       (ANGSTROMS)      (DEGREES)       (DEGREES) 
   (I)                     NA:I           NB:NA:I       NC:NB:NA:I       NA    NB    NC 
     1       C          0.00000000       0.0000000       0.0000000        0     0     0
     2       C          1.39549297  *    0.0000000       0.0000000        1     0     0
     3       C          1.39261868  *  119.5806282  *    0.0000000        2     1     0
     4       C          1.39611562  *  119.8608334  *    0.0171577  *     3     2     1
     5       C          1.39565751  *  120.5537025  *   -0.0229918  *     4     3     2
     6       C          1.39610394  *  120.5516264  *   -0.0212544  *     1     2     3
     7       C          1.48361013  *  120.0062638  *  179.9900776  *     1     2     3
     8       O          1.20727824  *  121.6476283  *  179.9937299  *     7     1     2
     9       C          1.48370302  *  119.3901960  *  179.9902950  *     4     3     2
    10       O          1.20726960  *  121.6557708  *    0.0212883  *     9     4     3
    11       H          1.08970266  *  120.5825437  *  179.9937467  *     2     1     6
    12       H          1.09382704  *  120.6488504  * -179.9787280  *     3     2     1
    13       H          1.08975817  *  120.5110195  *  179.9874385  *     5     4     3
    14       H          1.09392137  *  119.4174864  *  179.9928395  *     6     1     2
    15       H          1.09814237  *  117.6404787  *   -0.0024315  *     7     1     2
    16       H          1.09813813  *  117.6277614  * -179.9831746  *     9     4     3

                             CARTESIAN COORDINATES

   1    C        0.000000000     0.000000000     0.000000000
   2    C        1.395492968     0.000000000     0.000000000
   3    C        2.082956198     1.211107380     0.000000000
   4    C        1.373145356     2.413316703     0.000362574
   5    C       -0.022512143     2.413198998     0.000243733
   6    C       -0.709659917     1.202284832     0.000445998
   7    C       -0.741945524    -1.284762935    -0.000222493
   8    O       -1.948728412    -1.319343387    -0.000116012
   9    C        2.116146300     3.697576880     0.000577896
  10    O        3.322942441     3.731380831     0.000065719
  11    H        1.949910961    -0.938121800    -0.000245618
  12    H        3.176593076     1.231499537    -0.000349371
  13    H       -0.575866019     3.352013202     0.000732785
  14    H       -1.803366973     1.180632692     0.000318881
  15    H       -0.154288028    -2.212434908    -0.000424429
  16    H        1.529013984     4.625576163     0.001147973


           Empirical Formula: C8 H6 O2  =    16 atoms



      MOLECULAR POINT GROUP   :   C2h 


                  EIGENVALUES  
 -31.70999 -31.41935 -30.90488 -27.51432 -26.58956 -24.42069 -21.95941 -21.47007
 -20.21268 -17.97006 -17.24028 -16.02067 -15.30814 -15.30295 -15.16823 -14.92903
 -14.57892 -14.45686 -13.42983 -13.38573 -12.56011 -10.60679 -10.57104 -10.51638
 -10.45574  -1.38176  -0.39750   0.23850   1.05809   2.05855   2.85480   3.26647
   3.49867   4.03820   4.20559   4.34064   4.43584   4.65751   4.68841   4.90993
   5.07282   5.14082   5.16436   5.51475   5.59059   5.75457


              NET ATOMIC CHARGES AND DIPOLE CONTRIBUTIONS

  ATOM NO.   TYPE          CHARGE      No. of ELECS.   s-Pop       p-Pop       
    1          C          -0.134191        4.1342     1.08376     3.05043
    2          C          -0.135641        4.1356     1.08666     3.04898
    3          C          -0.098315        4.0983     1.09027     3.00804
    4          C          -0.134300        4.1343     1.08382     3.05048
    5          C          -0.135484        4.1355     1.08660     3.04888
    6          C          -0.098384        4.0984     1.09016     3.00822
    7          C           0.329066        3.6709     1.13815     2.53278
    8          O          -0.414126        6.4141     1.87940     4.53472
    9          C           0.329088        3.6709     1.13814     2.53277
   10          O          -0.414094        6.4141     1.87940     4.53469
   11          H           0.158309        0.8417     0.84169
   12          H           0.176872        0.8231     0.82313
   13          H           0.158322        0.8417     0.84168
   14          H           0.176921        0.8231     0.82308
   15          H           0.117997        0.8820     0.88200
   16          H           0.117959        0.8820     0.88204
 DIPOLE           X         Y         Z       TOTAL
 POINT-CHG.     0.001     0.002     0.001     0.002
 HYBRID         0.001    -0.001    -0.000     0.001
 SUM            0.001     0.001     0.001     0.002


          ATOMIC ORBITAL ELECTRON POPULATIONS

     Atom    s        px        py        pz   
    1  C   1.08376   0.99699   1.02100   1.03244
    2  C   1.08666   1.00240   1.06291   0.98366
    3  C   1.09027   1.09203   0.97014   0.94588
    4  C   1.08382   0.99697   1.02102   1.03249
    5  C   1.08660   1.00236   1.06286   0.98367
    6  C   1.09016   1.09212   0.97011   0.94599
    7  C   1.13815   0.87148   0.97454   0.68676
    8  O   1.87940   1.26281   1.92074   1.35117
    9  C   1.13814   0.87142   0.97461   0.68674
   10  O   1.87940   1.26274   1.92075   1.35119
   11  H   0.84169
   12  H   0.82313
   13  H   0.84168
   14  H   0.82308
   15  H   0.88200
   16  H   0.88204

 **********************
 *                    *
 * JOB ENDED NORMALLY *
 *                    *
 **********************



 TOTAL JOB TIME:             0.33 SECONDS

 == MOPAC DONE ==
