 *******************************************************************************
 ** Site#: 32691        For non-commercial use only    Version 19.179W 32BITS **
 *******************************************************************************
 ** Cite this program as: MOPAC2016, Version: 19.179W, James J. P. Stewart,   **
 ** Stewart Computational Chemistry, web: HTTP://OpenMOPAC.net. Days left: 253**
 *******************************************************************************
 **                                                                           **
 **                                MOPAC2016                                  **
 **                                                                           **
 *******************************************************************************

                              PM7 CALCULATION RESULTS

 *******************************************************************************
 *  CALCULATION DONE:                                Fri Oct 18 15:09:18 2019  *
 *  T=         - A TIME OF 172800.0 SECONDS REQUESTED
 *  DUMP=N     - RESTART FILE WRITTEN EVERY  7200.000 SECONDS
 *******************************************************************************

 Vanillin.mop

  ATOM    CHEMICAL      BOND LENGTH      BOND ANGLE     TWIST ANGLE 
 NUMBER    SYMBOL       (ANGSTROMS)      (DEGREES)       (DEGREES) 
   (I)                     NA:I           NB:NA:I       NC:NB:NA:I       NA    NB    NC 
     1       C          0.00000000       0.0000000       0.0000000        0     0     0
     2       C          1.34282500  *    0.0000000       0.0000000        1     0     0
     3       C          1.35018600  *  119.9931430  *    0.0000000        2     1     0
     4       C          1.34942500  *  117.6027580  *    0.0093830  *     3     2     1
     5       C          1.34669200  *  122.8070550  *   -0.0092390  *     4     3     2
     6       C          1.33978600  *  121.5397910  *   -0.0045240  *     1     2     3
     7       O          1.36206300  *  120.2656910  * -179.9993450  *     2     1     6
     8       O          1.37550300  *  117.3469080  *  179.9963140  *     3     2     1
     9       C          1.36152800  *  120.6703310  * -179.9969840  *     5     4     3
    10       O          1.21167200  *  125.9068760  * -179.9996430  *     9     5     4
    11       C          1.40816300  *  119.4141810  * -179.9226460  *     8     3     2
    12       H          1.10334100  *  119.0921480  *  179.9964590  *     1     2     3
    13       H          1.10114000  *  119.0005520  *  179.9930460  *     4     3     2
    14       H          1.10254600  *  118.2353080  * -179.9992070  *     6     1     2
    15       H          0.97103800  *  109.1197870  *  179.9697450  *     7     2     1
    16       H          1.11607300  *  115.4005010  *    0.0002400  *     9     5     4
    17       H          1.11312000  *  107.7243830  *  179.9704230  *    11     8     3
    18       H          1.11280200  *  110.3515220  *  -62.2028600  *    11     8     3
    19       H          1.11280500  *  110.3515910  *   62.1413360  *    11     8     3
 


          CARTESIAN COORDINATES 

    NO.       ATOM           X           Y           Z

     1         C          0.0000      0.0000      0.0000
     2         C          1.3428      0.0000      0.0000
     3         C          2.0178      1.1694      0.0000
     4         C          1.2946      2.3087      0.0002
     5         C         -0.0520      2.3182      0.0002
     6         C         -0.7008      1.1419      0.0001
     7         O          2.0293     -1.1764     -0.0001
     8         O          3.3918      1.1059      0.0001
     9         C         -0.7383      3.4941      0.0003
    10         O         -1.9441      3.6132      0.0004
    11         C          4.1393      2.2993      0.0017
    12         H         -0.5365     -0.9641     -0.0001
    13         H          1.8217      3.2755      0.0003
    14         H         -1.8015      1.0783      0.0001
    15         H          2.9820     -0.9887     -0.0006
    16         H         -0.1088      4.4157      0.0004
    17         H          5.2177      2.0237      0.0020
    18         H          3.9325      2.8867     -0.9205
    19         H          3.9314      2.8848      0.9249

 General Reference for PM7:
 "Optimization of Parameters for Semiempirical Methods VI: More Modifications to the 
 NDDO Approximations and Re-optimization of Parameters", J. J. P. Stewart, J. Mol. Mod., 1:32, 19 (2013)
 http://www.springerlink.com/openurl.asp?genre=article&id=doi:10.1007/s00894-012-1667-x

           Empirical Formula: C8 H8 O3  =    19 atoms



      MOLECULAR POINT GROUP   :   Cs  


      RHF CALCULATION, NO. OF DOUBLY OCCUPIED LEVELS = 29


          Geometry optimization using EF

          DIAGONAL MATRIX USED AS START HESSIAN

 CYCLE:     1 TIME:   0.062 TIME LEFT:  2.00D  GRAD.:   537.763 HEAT: -62.62349
 CYCLE:     2 TIME:   0.062 TIME LEFT:  2.00D  GRAD.:   402.475 HEAT: -67.39760
 CYCLE:     3 TIME:   0.016 TIME LEFT:  2.00D  GRAD.:   186.322 HEAT: -79.48667
 CYCLE:     4 TIME:   0.016 TIME LEFT:  2.00D  GRAD.:    74.508 HEAT: -86.71766
 CYCLE:     5 TIME:   0.016 TIME LEFT:  2.00D  GRAD.:    67.625 HEAT: -87.54398
 CYCLE:     6 TIME:   0.016 TIME LEFT:  2.00D  GRAD.:    60.261 HEAT: -87.96588
 CYCLE:     7 TIME:   0.016 TIME LEFT:  2.00D  GRAD.:    67.846 HEAT: -88.07706
 CYCLE:     8 TIME:   0.031 TIME LEFT:  2.00D  GRAD.:    62.603 HEAT: -88.19748
 CYCLE:     9 TIME:   0.000 TIME LEFT:  2.00D  GRAD.:    53.183 HEAT: -88.43551
 CYCLE:    10 TIME:   0.004 TIME LEFT:  2.00D  GRAD.:     7.849 HEAT: -88.58040
 CYCLE:    11 TIME:   0.031 TIME LEFT:  2.00D  GRAD.:     2.783 HEAT: -88.59984
 CYCLE:    12 TIME:   0.016 TIME LEFT:  2.00D  GRAD.:     2.021 HEAT: -88.60990
 CYCLE:    13 TIME:   0.016 TIME LEFT:  2.00D  GRAD.:     3.415 HEAT: -88.61417
 CYCLE:    14 TIME:   0.016 TIME LEFT:  2.00D  GRAD.:     0.590 HEAT: -88.61559

     GRADIENT =  0.59031 IS LESS THAN CUTOFF =  1.00000



 -------------------------------------------------------------------------------

 Vanillin.mop



     GEOMETRY OPTIMISED USING EIGENVECTOR FOLLOWING (EF).     
     SCF FIELD WAS ACHIEVED                                   


                              PM7 CALCULATION
                                                       MOPAC2016 (Version: 19.179W)
                                                       Fri Oct 18 15:09:18 2019
                                                       No. of days remaining = 253




          FINAL HEAT OF FORMATION =        -88.61559 KCAL/MOL =    -370.76765 KJ/MOL


          TOTAL ENERGY            =      -1975.71098 EV
          ELECTRONIC ENERGY       =      -9376.99732 EV  POINT GROUP:     Cs  
          CORE-CORE REPULSION     =       7401.28634 EV
          COSMO AREA              =        179.88 SQUARE ANGSTROMS
          COSMO VOLUME            =        177.63 CUBIC ANGSTROMS

          GRADIENT NORM           =          0.59031 = 0.13543 PER ATOM
          IONIZATION POTENTIAL    =          9.101421 EV
          HOMO LUMO ENERGIES (EV) =         -9.101 -0.673
          NO. OF FILLED LEVELS    =         29
          MOLECULAR WEIGHT        =        152.1494

          MOLECULAR DIMENSIONS (Angstroms)

            Atom       Atom       Distance
            H    17    O    10     7.45389
            H    16    H    12     5.49018
            H    18    H    19     1.81151


          SCF CALCULATIONS        =         17
 
          WALL-CLOCK TIME         =          0.332 SECONDS
          COMPUTATION TIME        =          0.577 SECONDS




  ATOM    CHEMICAL      BOND LENGTH      BOND ANGLE     TWIST ANGLE 
 NUMBER    SYMBOL       (ANGSTROMS)      (DEGREES)       (DEGREES) 
   (I)                     NA:I           NB:NA:I       NC:NB:NA:I       NA    NB    NC 
     1       C          0.00000000       0.0000000       0.0000000        0     0     0
     2       C          1.39080817  *    0.0000000       0.0000000        1     0     0
     3       C          1.41741636  *  120.7135360  *    0.0000000        2     1     0
     4       C          1.38333869  *  120.0785041  *    0.1233924  *     3     2     1
     5       C          1.40321420  *  118.9254737  *   -0.0631998  *     4     3     2
     6       C          1.39499558  *  118.8817804  *   -0.0776866  *     1     2     3
     7       O          1.35262083  *  116.5945281  *  179.8127420  *     2     1     6
     8       O          1.36520527  *  113.0437546  * -179.5146540  *     3     2     1
     9       C          1.47640499  *  119.5364443  *  179.9725989  *     5     4     3
    10       O          1.20901095  *  122.0562460  * -179.9724538  *     9     5     4
    11       C          1.42031225  *  116.7135186  * -178.3773188  *     8     3     2
    12       H          1.08909399  *  119.7617847  *  179.9631161  *     1     2     3
    13       H          1.08697314  *  121.1877458  *  179.9693933  *     4     3     2
    14       H          1.09492864  *  120.1085865  *  179.9988307  *     6     1     2
    15       H          0.99341145  *  111.7147702  * -179.5071694  *     7     2     1
    16       H          1.09830623  *  117.7354793  *    0.0274751  *     9     5     4
    17       H          1.09939464  *  101.9805444  *  179.8919613  *    11     8     3
    18       H          1.09467759  *  110.8760522  *  -62.5083711  *    11     8     3
    19       H          1.09465493  *  110.8648029  *   62.2199914  *    11     8     3

                             CARTESIAN COORDINATES

   1    C        0.000000000     0.000000000     0.000000000
   2    C        1.390808168     0.000000000     0.000000000
   3    C        2.114747964     1.218597686     0.000000000
   4    C        1.439707456     2.426049380     0.002577987
   5    C        0.036510852     2.419131551     0.003813709
   6    C       -0.673788400     1.221482340     0.001656194
   7    O        1.996340928    -1.209507270     0.002313041
   8    O        3.467700987     1.036415623    -0.010641596
   9    C       -0.697644159     3.700059649     0.007178919
  10    O       -1.905732357     3.747257010     0.008847950
  11    C        4.269979857     2.207910281     0.024512024
  12    H       -0.540620885    -0.945438741    -0.000608623
  13    H        1.976680679     3.371126137     0.003120033
  14    H       -1.768466061     1.244924952     0.001668648
  15    H        2.986121138    -1.125003065     0.010089833
  16    H       -0.108403289     4.626920387     0.008149347
  17    H        5.286329928     1.789015372     0.009407297
  18    H        4.097539209     2.825562672    -0.862668216
  19    H        4.099979577     2.769281786     0.948758389


           Empirical Formula: C8 H8 O3  =    19 atoms



      MOLECULAR POINT GROUP   :   Cs  


                  EIGENVALUES  
 -31.54847 -31.07301 -30.56585 -30.28660 -26.65816 -26.10627 -25.08292 -22.91148
 -21.51634 -20.28840 -18.95089 -17.55003 -16.85206 -16.43767 -16.39265 -15.35043
 -14.98996 -14.87704 -14.52467 -14.18806 -14.10848 -13.57099 -12.83204 -12.76592
 -12.38970 -12.01687 -10.24347 -10.04000  -9.10142  -0.67346  -0.14349   1.06466
   1.12767   2.24713   2.37946   3.22452   3.45749   3.99206   4.20010   4.33050
   4.46562   4.68072   4.91482   4.95385   5.03844   5.25196   5.29271   5.40244
   5.52542   5.61196   5.96438   6.04058


              NET ATOMIC CHARGES AND DIPOLE CONTRIBUTIONS

  ATOM NO.   TYPE          CHARGE      No. of ELECS.   s-Pop       p-Pop       
    1          C          -0.235024        4.2350     1.07700     3.15803
    2          C           0.244637        3.7554     1.07929     2.67607
    3          C           0.082690        3.9173     1.07707     2.84024
    4          C          -0.185710        4.1857     1.07852     3.10719
    5          C          -0.189622        4.1896     1.07055     3.11908
    6          C          -0.056518        4.0565     1.08865     2.96786
    7          O          -0.443565        6.4436     1.83991     4.60365
    8          O          -0.342308        6.3423     1.86443     4.47787
    9          C           0.345747        3.6543     1.13345     2.52081
   10          O          -0.434860        6.4349     1.87947     4.55539
   11          C          -0.184635        4.1846     1.08742     3.09722
   12          H           0.184533        0.8155     0.81547
   13          H           0.161790        0.8382     0.83821
   14          H           0.178912        0.8211     0.82109
   15          H           0.341003        0.6590     0.65900
   16          H           0.107709        0.8923     0.89229
   17          H           0.153363        0.8466     0.84664
   18          H           0.135851        0.8641     0.86415
   19          H           0.136008        0.8640     0.86399
 DIPOLE           X         Y         Z       TOTAL
 POINT-CHG.     4.038     1.391     0.066     4.272
 HYBRID         0.669    -0.460    -0.006     0.812
 SUM            4.707     0.930     0.059     4.798


          ATOMIC ORBITAL ELECTRON POPULATIONS

     Atom    s        px        py        pz   
    1  C   1.07700   0.99074   1.07817   1.08912
    2  C   1.07929   0.93583   0.80950   0.93074
    3  C   1.07707   0.81313   0.98170   1.04540
    4  C   1.07852   1.01252   1.05119   1.04348
    5  C   1.07055   0.98219   1.02628   1.11061
    6  C   1.08865   1.09072   0.95824   0.91891
    7  O   1.83991   1.36773   1.34263   1.89330
    8  O   1.86443   1.21884   1.35287   1.90616
    9  C   1.13345   0.86771   0.97039   0.68271
   10  O   1.87947   1.26512   1.92153   1.36874
   11  C   1.08742   1.00910   0.94388   1.14425
   12  H   0.81547
   13  H   0.83821
   14  H   0.82109
   15  H   0.65900
   16  H   0.89229
   17  H   0.84664
   18  H   0.86415
   19  H   0.86399

 **********************
 *                    *
 * JOB ENDED NORMALLY *
 *                    *
 **********************



 TOTAL JOB TIME:             0.35 SECONDS

 == MOPAC DONE ==
