 *******************************************************************************
 ** Site#: 32691        For non-commercial use only    Version 19.179W 32BITS **
 *******************************************************************************
 ** Cite this program as: MOPAC2016, Version: 19.179W, James J. P. Stewart,   **
 ** Stewart Computational Chemistry, web: HTTP://OpenMOPAC.net. Days left: 250**
 *******************************************************************************
 **                                                                           **
 **                                MOPAC2016                                  **
 **                                                                           **
 *******************************************************************************

                              PM7 CALCULATION RESULTS

 *******************************************************************************
 *  CALCULATION DONE:                                Mon Oct 21 13:52:42 2019  *
 *  T=         - A TIME OF 172800.0 SECONDS REQUESTED
 *  DUMP=N     - RESTART FILE WRITTEN EVERY  7200.000 SECONDS
 *******************************************************************************

 Vanillin2_chem3d.mop

  ATOM    CHEMICAL      BOND LENGTH      BOND ANGLE     TWIST ANGLE 
 NUMBER    SYMBOL       (ANGSTROMS)      (DEGREES)       (DEGREES) 
   (I)                     NA:I           NB:NA:I       NC:NB:NA:I       NA    NB    NC 
     1       C          0.00000000       0.0000000       0.0000000        0     0     0
     2       C          1.33961400  *    0.0000000       0.0000000        1     0     0
     3       C          1.34358400  *  119.6337370  *    0.0000000        2     1     0
     4       C          1.34629600  *  118.4786180  *    0.0022610  *     3     2     1
     5       C          1.34940500  *  122.7657270  *    0.0027230  *     4     3     2
     6       C          1.34282900  *  121.4739460  *   -0.0011770  *     1     2     3
     7       O          1.36194000  *  120.2597740  *  179.9998340  *     6     1     2
     8       O          1.37547600  *  125.0037380  * -179.9953360  *     5     4     3
     9       C          1.36149400  *  120.0250020  * -179.9973050  *     3     2     1
    10       C          1.40814300  *  119.4426260  *    0.0564990  *     8     5     4
    11       O          1.21153600  *  125.8855450  *  179.9992230  *     9     3     2
    12       H          1.10327800  *  119.3774170  *  179.9979840  *     1     2     3
    13       H          1.10322500  *  118.5211100  * -179.9993270  *     2     1     6
    14       H          1.10011800  *  118.5295740  * -179.9992120  *     4     3     2
    15       H          0.97100700  *  109.1296100  *  179.9749440  *     7     6     1
    16       H          1.11611600  *  115.2769020  *   -0.0005610  *     9     3     2
    17       H          1.11311700  *  107.7176160  *  179.9722640  *    10     8     5
    18       H          1.11279000  *  110.3599480  *  -62.2223070  *    10     8     5
    19       H          1.11279100  *  110.3588360  *   62.1653180  *    10     8     5
 


          CARTESIAN COORDINATES 

    NO.       ATOM           X           Y           Z

     1         C          0.0000      0.0000      0.0000
     2         C          1.3396      0.0000      0.0000
     3         C          2.0040      1.1678      0.0000
     4         C          1.2928      2.3110      0.0000
     5         C         -0.0565      2.3316      0.0001
     6         C         -0.7011      1.1453      0.0000
     7         O         -2.0627      1.1164      0.0000
     8         O         -0.8281      3.4703      0.0001
     9         C          3.3654      1.1771     -0.0001
    10         C         -0.2013      4.7312     -0.0013
    11         O          4.0689      2.1635     -0.0001
    12         H         -0.5412     -0.9614     -0.0000
    13         H          1.8664     -0.9693     -0.0000
    14         H          1.8359      3.2677      0.0000
    15         H         -2.4003      2.0268      0.0004
    16         H          3.8489      0.1712     -0.0001
    17         H         -1.0000      5.5065     -0.0016
    18         H          0.4072      4.8621      0.9212
    19         H          0.4064      4.8605     -0.9245

 General Reference for PM7:
 "Optimization of Parameters for Semiempirical Methods VI: More Modifications to the 
 NDDO Approximations and Re-optimization of Parameters", J. J. P. Stewart, J. Mol. Mod., 1:32, 19 (2013)
 http://www.springerlink.com/openurl.asp?genre=article&id=doi:10.1007/s00894-012-1667-x

           Empirical Formula: C8 H8 O3  =    19 atoms



      MOLECULAR POINT GROUP   :   Cs  


      RHF CALCULATION, NO. OF DOUBLY OCCUPIED LEVELS = 29


          Geometry optimization using EF

          DIAGONAL MATRIX USED AS START HESSIAN

 CYCLE:     1 TIME:   0.016 TIME LEFT:  2.00D  GRAD.:   547.845 HEAT: -63.32938
 CYCLE:     2 TIME:   0.047 TIME LEFT:  2.00D  GRAD.:   393.996 HEAT: -68.82557
 CYCLE:     3 TIME:   0.016 TIME LEFT:  2.00D  GRAD.:   183.653 HEAT: -80.85204
 CYCLE:     4 TIME:   0.016 TIME LEFT:  2.00D  GRAD.:    66.185 HEAT: -87.66166
 CYCLE:     5 TIME:   0.016 TIME LEFT:  2.00D  GRAD.:    59.009 HEAT: -88.23525
 CYCLE:     6 TIME:   0.000 TIME LEFT:  2.00D  GRAD.:    53.530 HEAT: -88.60340
 CYCLE:     7 TIME:   0.016 TIME LEFT:  2.00D  GRAD.:    47.565 HEAT: -88.93683
 CYCLE:     8 TIME:   0.016 TIME LEFT:  2.00D  GRAD.:     9.451 HEAT: -89.07719
 CYCLE:     9 TIME:   0.016 TIME LEFT:  2.00D  GRAD.:    11.220 HEAT: -89.10661
 CYCLE:    10 TIME:   0.016 TIME LEFT:  2.00D  GRAD.:     4.224 HEAT: -89.14405
 CYCLE:    11 TIME:   0.016 TIME LEFT:  2.00D  GRAD.:     2.097 HEAT: -89.15833
 CYCLE:    12 TIME:   0.016 TIME LEFT:  2.00D  GRAD.:     2.592 HEAT: -89.16126
 CYCLE:    13 TIME:   0.000 TIME LEFT:  2.00D  GRAD.:     0.973 HEAT: -89.16325

     GRADIENT =  0.97270 IS LESS THAN CUTOFF =  1.00000



 -------------------------------------------------------------------------------

 Vanillin2_chem3d.mop



     GEOMETRY OPTIMISED USING EIGENVECTOR FOLLOWING (EF).     
     SCF FIELD WAS ACHIEVED                                   


                              PM7 CALCULATION
                                                       MOPAC2016 (Version: 19.179W)
                                                       Mon Oct 21 13:52:42 2019
                                                       No. of days remaining = 250




          FINAL HEAT OF FORMATION =        -89.16326 KCAL/MOL =    -373.05909 KJ/MOL


          TOTAL ENERGY            =      -1975.73368 EV
          ELECTRONIC ENERGY       =      -9407.32921 EV  POINT GROUP:     Cs  
          CORE-CORE REPULSION     =       7431.59553 EV
          COSMO AREA              =        180.35 SQUARE ANGSTROMS
          COSMO VOLUME            =        177.80 CUBIC ANGSTROMS

          GRADIENT NORM           =          0.97270 = 0.22315 PER ATOM
          IONIZATION POTENTIAL    =          9.088744 EV
          HOMO LUMO ENERGIES (EV) =         -9.089 -0.663
          NO. OF FILLED LEVELS    =         29
          MOLECULAR WEIGHT        =        152.1494

          MOLECULAR DIMENSIONS (Angstroms)

            Atom       Atom       Distance
            H    17    H    16     7.30783
            H    12    O    11     5.63451
            H    19    H    18     1.81025


          SCF CALCULATIONS        =         17
 
          WALL-CLOCK TIME         =          0.406 SECONDS
          COMPUTATION TIME        =          0.406 SECONDS




  ATOM    CHEMICAL      BOND LENGTH      BOND ANGLE     TWIST ANGLE 
 NUMBER    SYMBOL       (ANGSTROMS)      (DEGREES)       (DEGREES) 
   (I)                     NA:I           NB:NA:I       NC:NB:NA:I       NA    NB    NC 
     1       C          0.00000000       0.0000000       0.0000000        0     0     0
     2       C          1.39381187  *    0.0000000       0.0000000        1     0     0
     3       C          1.39348934  *  120.2893878  *    0.0000000        2     1     0
     4       C          1.40138079  *  120.9079808  *    0.1024505  *     3     2     1
     5       C          1.38411051  *  119.1883559  *    0.0872118  *     4     3     2
     6       C          1.39283947  *  119.0198507  *   -0.0261317  *     1     2     3
     7       O          1.35282193  *  116.4847563  *  179.7306675  *     6     1     2
     8       O          1.36447592  *  126.8162410  *  179.8421531  *     5     4     3
     9       C          1.47666967  *  120.1926613  * -179.8939120  *     3     2     1
    10       C          1.42142990  *  116.5264945  *    1.3922751  *     8     5     4
    11       O          1.20900624  *  122.0123771  *  179.9954981  *     9     3     2
    12       H          1.08875716  *  121.4658980  *  179.8793631  *     1     2     3
    13       H          1.09025182  *  119.3158119  * -179.9971384  *     2     1     6
    14       H          1.09221026  *  118.9219048  *  179.9876572  *     4     3     2
    15       H          0.99390782  *  111.6308412  * -179.6022954  *     7     6     1
    16       H          1.09861328  *  117.7607044  *   -0.0049538  *     9     3     2
    17       H          1.09916033  *  101.9664079  *  179.9708641  *    10     8     5
    18       H          1.09506151  *  110.8629946  *  -62.2725980  *    10     8     5
    19       H          1.09499068  *  110.8325038  *   62.1715533  *    10     8     5

                             CARTESIAN COORDINATES

   1    C        0.000000000     0.000000000     0.000000000
   2    C        1.393811872     0.000000000     0.000000000
   3    C        2.096642882     1.203262691     0.000000000
   4    C        1.421467799     2.431270060     0.002149965
   5    C        0.037394373     2.440586095     0.006134668
   6    C       -0.675683990     1.217970694     0.000555498
   7    O       -2.027170237     1.158142703    -0.005163647
   8    O       -0.772885267     3.538407074     0.011660872
   9    C        3.573308559     1.200770887    -0.002363256
  10    C       -0.127003775     4.804288701    -0.017386717
  11    O        4.215935295     2.224844590    -0.002514890
  12    H       -0.568321427    -0.928654453    -0.001955296
  13    H        1.927624345    -0.950627710    -0.000481045
  14    H        2.004697760     3.354723386     0.002288222
  15    H       -2.434030356     2.064942680    -0.010767794
  16    H        4.083377316     0.227745542    -0.004003402
  17    H       -0.981017304     5.496171124    -0.006754830
  18    H        0.494466547     4.945544344     0.873108203
  19    H        0.455112283     4.923445049    -0.937140623


           Empirical Formula: C8 H8 O3  =    19 atoms



      MOLECULAR POINT GROUP   :   Cs  


                  EIGENVALUES  
 -31.51900 -31.04368 -30.51601 -30.27933 -26.50626 -26.14050 -25.15120 -22.67421
 -21.61577 -20.26582 -18.70887 -18.07764 -16.70560 -16.31206 -15.86085 -15.25097
 -15.19415 -14.84321 -14.72210 -14.19366 -13.84466 -13.69004 -12.81610 -12.69950
 -12.32162 -12.01149 -10.27167  -9.98484  -9.08874  -0.66271  -0.14891   1.05964
   1.22664   2.24834   2.40952   3.30954   3.43629   4.04166   4.22715   4.31118
   4.53493   4.68971   4.97688   5.08458   5.10516   5.26370   5.34303   5.44007
   5.64451   5.65870   5.87350   6.00889


              NET ATOMIC CHARGES AND DIPOLE CONTRIBUTIONS

  ATOM NO.   TYPE          CHARGE      No. of ELECS.   s-Pop       p-Pop       
    1          C          -0.229137        4.2291     1.07551     3.15363
    2          C          -0.094529        4.0945     1.08304     3.01149
    3          C          -0.186485        4.1865     1.07106     3.11543
    4          C          -0.150902        4.1509     1.08363     3.06727
    5          C           0.076686        3.9233     1.07741     2.84590
    6          C           0.243164        3.7568     1.07902     2.67782
    7          O          -0.445864        6.4459     1.84011     4.60576
    8          O          -0.343164        6.3432     1.86460     4.47857
    9          C           0.348258        3.6517     1.13428     2.51747
   10          C          -0.184469        4.1845     1.08828     3.09619
   11          O          -0.440806        6.4408     1.87912     4.56168
   12          H           0.181155        0.8188     0.81884
   13          H           0.156456        0.8435     0.84354
   14          H           0.184425        0.8156     0.81558
   15          H           0.342536        0.6575     0.65746
   16          H           0.111507        0.8885     0.88849
   17          H           0.153944        0.8461     0.84606
   18          H           0.138692        0.8613     0.86131
   19          H           0.138533        0.8615     0.86147
 DIPOLE           X         Y         Z       TOTAL
 POINT-CHG.    -0.719    -0.187    -0.057     0.745
 HYBRID        -0.727     0.656     0.005     0.979
 SUM           -1.446     0.469    -0.052     1.521


          ATOMIC ORBITAL ELECTRON POPULATIONS

     Atom    s        px        py        pz   
    1  C   1.07551   1.00841   1.05694   1.08828
    2  C   1.08304   0.99999   1.04867   0.96283
    3  C   1.07106   1.02091   0.98791   1.10660
    4  C   1.08363   0.99099   1.07397   1.00231
    5  C   1.07741   0.94113   0.85740   1.04737
    6  C   1.07902   0.78788   0.95792   0.93202
    7  O   1.84011   1.26875   1.44338   1.89362
    8  O   1.86460   1.36249   1.21032   1.90577
    9  C   1.13428   0.90742   0.93061   0.67944
   10  C   1.08828   1.11115   0.83649   1.14855
   11  O   1.87912   1.72506   1.46507   1.37155
   12  H   0.81884
   13  H   0.84354
   14  H   0.81558
   15  H   0.65746
   16  H   0.88849
   17  H   0.84606
   18  H   0.86131
   19  H   0.86147

 **********************
 *                    *
 * JOB ENDED NORMALLY *
 *                    *
 **********************



 TOTAL JOB TIME:             0.42 SECONDS

 == MOPAC DONE ==
