 *******************************************************************************
 ** Site#: 32691        For non-commercial use only    Version 19.179W 32BITS **
 *******************************************************************************
 ** Cite this program as: MOPAC2016, Version: 19.179W, James J. P. Stewart,   **
 ** Stewart Computational Chemistry, web: HTTP://OpenMOPAC.net. Days left: 242**
 *******************************************************************************
 **                                                                           **
 **                                MOPAC2016                                  **
 **                                                                           **
 *******************************************************************************

                              PM7 CALCULATION RESULTS

 *******************************************************************************
 *  CALCULATION DONE:                                Tue Oct 29 11:32:33 2019  *
 *  STATIC     - CALCULATE STATIC FIELD POLARIZABILITIES
 *  T=         - A TIME OF 172800.0 SECONDS REQUESTED
 *  DUMP=N     - RESTART FILE WRITTEN EVERY  7200.000 SECONDS
 *  RELSCF     - DEFAULT SCF CRITERION MULTIPLIED BY 0.0100
 *              (DEFAULT SCF CRITERION = 0.00010)
 *******************************************************************************
STATIC RELSCF=0.01
 2,3,4-trimethoxybenzaldehyde2.mop

  ATOM    CHEMICAL      BOND LENGTH      BOND ANGLE     TWIST ANGLE 
 NUMBER    SYMBOL       (ANGSTROMS)      (DEGREES)       (DEGREES) 
   (I)                     NA:I           NB:NA:I       NC:NB:NA:I       NA    NB    NC 
     1       C          0.00000000       0.0000000       0.0000000        0     0     0
     2       C          1.33757900  *    0.0000000       0.0000000        1     0     0
     3       C          1.34491400  *  121.8874240  *    0.0000000        2     1     0
     4       C          1.35579300  *  117.5828960  *    0.8274470  *     3     2     1
     5       C          1.35850200  *  121.2199460  *   -0.0369900  *     4     3     2
     6       C          1.34254100  *  120.4637160  *    0.4323220  *     1     2     3
     7       C          1.36436200  *  118.8760480  *  178.0903290  *     6     1     2
     8       O          1.21210600  *  125.8900690  *   -0.1494290  *     7     6     1
     9       O          1.37790500  *  119.1832150  * -175.6987110  *     5     4     3
    10       C          1.41060400  *  114.4679960  *  -88.4034930  *     9     5     4
    11       O          1.37950700  *  120.3849440  * -177.5960190  *     4     3     2
    12       C          1.41174900  *  116.3033960  *  -65.2894970  *    11     4     3
    13       O          1.37575700  *  123.2154910  * -177.0436480  *     3     2     1
    14       C          1.40864000  *  119.5353000  *   10.1669330  *    13     3     2
    15       H          1.10309000  *  117.3117410  *  178.9578190  *     1     2     3
    16       H          1.10141600  *  116.7453320  * -178.4450020  *     2     1     6
    17       H          1.11364100  *  117.0128760  *  179.6806330  *     7     6     1
    18       H          1.11281500  *  108.0983610  * -177.0888300  *    10     9     5
    19       H          1.11274300  *  110.1863510  *  -57.9234440  *    10     9     5
    20       H          1.11120000  *  110.5256050  *   63.8796300  *    10     9     5
    21       H          1.11312400  *  107.9001800  * -160.9845910  *    12    11     4
    22       H          1.11250400  *  110.4593940  *  -42.0089390  *    12    11     4
    23       H          1.11025500  *  111.2187500  *   81.1974030  *    12    11     4
    24       H          1.11322200  *  107.6752660  *  175.0434760  *    14    13     3
    25       H          1.11266400  *  110.5191420  *  -67.4474270  *    14    13     3
    26       H          1.11289400  *  110.3582540  *   57.0940700  *    14    13     3
 


          CARTESIAN COORDINATES 

    NO.       ATOM           X           Y           Z

     1         C          0.0000      0.0000      0.0000
     2         C          1.3376      0.0000      0.0000
     3         C          2.0480      1.1419      0.0000
     4         C          1.3594      2.3097      0.0174
     5         C          0.0011      2.3260      0.0334
     6         C         -0.6807      1.1572     -0.0087
     7         C         -2.0439      1.1194     -0.0483
     8         O         -2.7264      0.1182     -0.0798
     9         O         -0.6572      3.5343     -0.0395
    10         C         -0.8888      4.1497      1.2084
    11         O          2.0285      3.5151     -0.0316
    12         C          2.8495      3.8203      1.0756
    13         O          3.4221      1.1746     -0.0594
    14         C          4.1334     -0.0085     -0.3395
    15         H         -0.5061     -0.9800     -0.0178
    16         H          1.8332     -0.9834     -0.0193
    17         H         -2.5772      2.0971     -0.0489
    18         H         -1.4683      5.0831      1.0314
    19         H         -1.4789      3.4736      1.8664
    20         H          0.0736      4.4121      1.6980
    21         H          3.0356      4.9177      1.0714
    22         H          2.3400      3.5442      2.0253
    23         H          3.8336      3.3122      0.9983
    24         H          5.2105      0.2580     -0.4296
    25         H          4.0312     -0.7328      0.4990
    26         H          3.7991     -0.4409     -1.3089

 General Reference for PM7:
 "Optimization of Parameters for Semiempirical Methods VI: More Modifications to the 
 NDDO Approximations and Re-optimization of Parameters", J. J. P. Stewart, J. Mol. Mod., 1:32, 19 (2013)
 http://www.springerlink.com/openurl.asp?genre=article&id=doi:10.1007/s00894-012-1667-x

           Empirical Formula: C10 H12 O4  =    26 atoms



      MOLECULAR POINT GROUP   :   C1  


      RHF CALCULATION, NO. OF DOUBLY OCCUPIED LEVELS = 38


          Geometry optimization using EF
  SCF CRITERION =    0.1000E-05

          DIAGONAL MATRIX USED AS START HESSIAN

 CYCLE:     1 TIME:   0.047 TIME LEFT:  2.00D  GRAD.:   492.885 HEAT: -90.07402
 CYCLE:     2 TIME:   0.078 TIME LEFT:  2.00D  GRAD.:   393.443 HEAT: -94.37326
 CYCLE:     3 TIME:   0.012 TIME LEFT:  2.00D  GRAD.:   178.202 HEAT: -106.2070
 CYCLE:     4 TIME:   0.047 TIME LEFT:  2.00D  GRAD.:   100.858 HEAT: -113.1926
 CYCLE:     5 TIME:   0.031 TIME LEFT:  2.00D  GRAD.:   117.367 HEAT: -113.2725
 CYCLE:     6 TIME:   0.016 TIME LEFT:  2.00D  GRAD.:    63.708 HEAT: -116.0185
 CYCLE:     7 TIME:   0.031 TIME LEFT:  2.00D  GRAD.:    77.807 HEAT: -116.1792
 CYCLE:     8 TIME:   0.016 TIME LEFT:  2.00D  GRAD.:    71.970 HEAT: -116.5012
 CYCLE:     9 TIME:   0.016 TIME LEFT:  2.00D  GRAD.:    57.841 HEAT: -116.8532
 CYCLE:    10 TIME:   0.016 TIME LEFT:  2.00D  GRAD.:    11.863 HEAT: -117.0811
 CYCLE:    11 TIME:   0.031 TIME LEFT:  2.00D  GRAD.:    20.493 HEAT: -117.2767
 CYCLE:    12 TIME:   0.016 TIME LEFT:  2.00D  GRAD.:    38.193 HEAT: -117.5989
 CYCLE:    13 TIME:   0.016 TIME LEFT:  2.00D  GRAD.:    43.616 HEAT: -117.9774
 CYCLE:    14 TIME:   0.031 TIME LEFT:  2.00D  GRAD.:    30.181 HEAT: -118.6487
 CYCLE:    15 TIME:   0.016 TIME LEFT:  2.00D  GRAD.:    23.430 HEAT: -119.1257
 CYCLE:    16 TIME:   0.016 TIME LEFT:  2.00D  GRAD.:    24.886 HEAT: -119.6114
 CYCLE:    17 TIME:   0.000 TIME LEFT:  2.00D  GRAD.:    22.260 HEAT: -119.8704
 CYCLE:    18 TIME:   0.031 TIME LEFT:  2.00D  GRAD.:    28.895 HEAT: -120.0576
 CYCLE:    19 TIME:   0.016 TIME LEFT:  2.00D  GRAD.:    11.013 HEAT: -120.3164
 CYCLE:    20 TIME:   0.031 TIME LEFT:  2.00D  GRAD.:     4.012 HEAT: -120.3802
 CYCLE:    21 TIME:   0.031 TIME LEFT:  2.00D  GRAD.:     3.435 HEAT: -120.4263
 CYCLE:    22 TIME:   0.016 TIME LEFT:  2.00D  GRAD.:     4.485 HEAT: -120.4617
 CYCLE:    23 TIME:   0.016 TIME LEFT:  2.00D  GRAD.:     4.079 HEAT: -120.4967
 CYCLE:    24 TIME:   0.031 TIME LEFT:  2.00D  GRAD.:     3.278 HEAT: -120.5356
 CYCLE:    25 TIME:   0.016 TIME LEFT:  2.00D  GRAD.:     4.121 HEAT: -120.5887
 CYCLE:    26 TIME:   0.031 TIME LEFT:  2.00D  GRAD.:     6.003 HEAT: -120.6488
 CYCLE:    27 TIME:   0.016 TIME LEFT:  2.00D  GRAD.:     6.506 HEAT: -120.7045
 CYCLE:    28 TIME:   0.016 TIME LEFT:  2.00D  GRAD.:     2.821 HEAT: -120.7629
 CYCLE:    29 TIME:   0.016 TIME LEFT:  2.00D  GRAD.:     1.639 HEAT: -120.7770
 CYCLE:    30 TIME:   0.031 TIME LEFT:  2.00D  GRAD.:     1.712 HEAT: -120.7910
 CYCLE:    31 TIME:   0.016 TIME LEFT:  2.00D  GRAD.:     1.400 HEAT: -120.7973
 CYCLE:    32 TIME:   0.016 TIME LEFT:  2.00D  GRAD.:     1.438 HEAT: -120.8075
 CYCLE:    33 TIME:   0.016 TIME LEFT:  2.00D  GRAD.:     1.610 HEAT: -120.8161
 CYCLE:    34 TIME:   0.016 TIME LEFT:  2.00D  GRAD.:     1.447 HEAT: -120.8240
 CYCLE:    35 TIME:   0.031 TIME LEFT:  2.00D  GRAD.:     1.107 HEAT: -120.8307
 CYCLE:    36 TIME:   0.016 TIME LEFT:  2.00D  GRAD.:     0.943 HEAT: -120.8355

     GRADIENT =  0.94280 IS LESS THAN CUTOFF =  1.00000



 -------------------------------------------------------------------------------
 STATIC RELSCF=0.01
 2,3,4-trimethoxybenzaldehyde2.mop



     GEOMETRY OPTIMISED USING EIGENVECTOR FOLLOWING (EF).     
     SCF FIELD WAS ACHIEVED                                   


                              PM7 CALCULATION
                                                       MOPAC2016 (Version: 19.179W)
                                                       Tue Oct 29 11:32:34 2019
                                                       No. of days remaining = 242




          FINAL HEAT OF FORMATION =       -120.83545 KCAL/MOL =    -505.57553 KJ/MOL


          TOTAL ENERGY            =      -2570.05721 EV
          ELECTRONIC ENERGY       =     -14613.31273 EV  POINT GROUP:     C1  
          CORE-CORE REPULSION     =      12043.25551 EV
          COSMO AREA              =        219.62 SQUARE ANGSTROMS
          COSMO VOLUME            =        229.87 CUBIC ANGSTROMS

          GRADIENT NORM           =          0.94280 = 0.18490 PER ATOM
          IONIZATION POTENTIAL    =          9.109648 EV
          HOMO LUMO ENERGIES (EV) =         -9.110 -0.384
          NO. OF FILLED LEVELS    =         38
          MOLECULAR WEIGHT        =        196.2024

          MOLECULAR DIMENSIONS (Angstroms)

            Atom       Atom       Distance
            H    24    H    17     8.10326
            H    21    H    15     6.58465
            H    20    H    22     2.94427


          SCF CALCULATIONS        =         39
 
          WALL-CLOCK TIME         =          0.871 SECONDS
          COMPUTATION TIME        =          1.622 SECONDS




  ATOM    CHEMICAL      BOND LENGTH      BOND ANGLE     TWIST ANGLE 
 NUMBER    SYMBOL       (ANGSTROMS)      (DEGREES)       (DEGREES) 
   (I)                     NA:I           NB:NA:I       NC:NB:NA:I       NA    NB    NC 
     1       C          0.00000000       0.0000000       0.0000000        0     0     0
     2       C          1.38984399  *    0.0000000       0.0000000        1     0     0
     3       C          1.39754491  *  119.0352538  *    0.0000000        2     1     0
     4       C          1.40999583  *  121.1043160  *   -0.1078662  *     3     2     1
     5       C          1.39963727  *  118.9753151  *   -0.6145042  *     4     3     2
     6       C          1.39427066  *  121.2587103  *    0.6879899  *     1     2     3
     7       C          1.47058776  *  119.5833335  *  179.4466745  *     6     1     2
     8       O          1.21062665  *  121.5057384  *    1.4231665  *     7     6     1
     9       O          1.34765239  *  126.9965833  * -177.9594706  *     5     4     3
    10       C          1.42329094  *  119.0583507  *   -2.8610423  *     9     5     4
    11       O          1.36931854  *  121.7932739  * -174.5893481  *     4     3     2
    12       C          1.42815055  *  113.6331996  *  -62.8501270  *    11     4     3
    13       O          1.35307411  *  125.2787168  *  179.4743534  *     3     2     1
    14       C          1.42403346  *  117.0749353  *    0.2321927  *    13     3     2
    15       H          1.09773560  *  120.1461209  * -179.4347000  *     1     2     3
    16       H          1.08411806  *  119.7859203  * -179.2022430  *     2     1     6
    17       H          1.09757467  *  118.2412547  * -178.5241114  *     7     6     1
    18       H          1.09818654  *  101.7132501  * -177.8727456  *    10     9     5
    19       H          1.09339204  *  111.2233986  *  -59.5748451  *    10     9     5
    20       H          1.09670185  *  110.4349038  *   64.2033455  *    10     9     5
    21       H          1.09625493  *  102.8532505  * -158.3923367  *    12    11     4
    22       H          1.09178180  *  112.5160475  *  -38.8661915  *    12    11     4
    23       H          1.09621802  *  109.0621638  *   84.2901995  *    12    11     4
    24       H          1.09874560  *  101.9477120  *  179.0935584  *    14    13     3
    25       H          1.09425246  *  110.9355028  *  -63.1161245  *    14    13     3
    26       H          1.09473272  *  110.9759400  *   61.6279188  *    14    13     3

                             CARTESIAN COORDINATES

   1    C        0.000000000     0.000000000     0.000000000
   2    C        1.389843992     0.000000000     0.000000000
   3    C        2.068139168     1.221903202     0.000000000
   4    C        1.366119736     2.444708085    -0.002272845
   5    C       -0.033265958     2.423109125    -0.017688588
   6    C       -0.723491530     1.191782637    -0.014311243
   7    C       -2.193399656     1.148673290    -0.026144865
   8    O       -2.795784883     0.098928335     0.001863237
   9    O       -0.860324434     3.486274232    -0.060363958
  10    C       -0.304324334     4.796180997    -0.032700910
  11    O        2.011954964     3.647154947    -0.112052866
  12    C        2.899556773     3.921421471     0.972638284
  13    O        3.413147219     1.369077254     0.010133612
  14    C        4.195349901     0.179123957     0.016567987
  15    H       -0.551290491    -0.949217852     0.009365615
  16    H        1.928391242    -0.940890841    -0.001802558
  17    H       -2.740589387     2.099437264    -0.062220098
  18    H       -1.206942955     5.421683319    -0.039037535
  19    H        0.279993050     4.959026442     0.877002731
  20    H        0.303396334     4.973192451    -0.928299859
  21    H        2.999310601     5.012520435     0.936208824
  22    H        2.497309604     3.596877551     1.934332598
  23    H        3.864908980     3.440837430     0.775589928
  24    H        5.218530038     0.579443314     0.007148746
  25    H        4.017045954    -0.401067822     0.927047889
  26    H        4.011544070    -0.415546026    -0.884000035


           Empirical Formula: C10 H12 O4  =    26 atoms



      MOLECULAR POINT GROUP   :   C1  


                  EIGENVALUES  
 -31.41034 -31.09082 -30.67429 -30.06998 -30.00993 -26.47676 -26.11085 -25.08217
 -24.57288 -24.17692 -22.61576 -21.14966 -19.86344 -18.63996 -17.62263 -16.95787
 -16.64924 -16.55867 -16.03259 -15.93936 -15.30548 -15.12017 -14.86532 -14.36116
 -14.20830 -14.02889 -13.56508 -13.42297 -13.23057 -13.05289 -12.62904 -12.41538
 -12.11436 -11.43714 -10.66748  -9.89006  -9.22242  -9.10965  -0.38377   0.05551
   1.15101   1.32402   1.53556   2.12861   2.44817   3.56834   3.65497   3.88543
   4.10984   4.18501   4.60219   4.69137   4.77938   4.95779   5.03502   5.09860
   5.38649   5.40965   5.44431   5.48376   5.48766   5.54621   5.62979   5.81111
   5.97451   6.00352   6.09371   6.15217


              NET ATOMIC CHARGES AND DIPOLE CONTRIBUTIONS

  ATOM NO.   TYPE          CHARGE      No. of ELECS.   s-Pop       p-Pop       
    1          C           0.033320        3.9667     1.09192     2.87476
    2          C          -0.370141        4.3701     1.06850     3.30164
    3          C           0.269688        3.7303     1.09506     2.63526
    4          C          -0.073779        4.0738     1.05985     3.01393
    5          C           0.288645        3.7114     1.08997     2.62139
    6          C          -0.325990        4.3260     1.06473     3.26126
    7          C           0.381706        3.6183     1.12815     2.49014
    8          O          -0.464623        6.4646     1.87898     4.58564
    9          O          -0.308700        6.3087     1.86036     4.44834
   10          C          -0.181458        4.1815     1.09059     3.09087
   11          O          -0.298693        6.2987     1.87483     4.42386
   12          C          -0.212036        4.2120     1.08681     3.12523
   13          O          -0.290198        6.2902     1.86662     4.42357
   14          C          -0.208177        4.2082     1.08906     3.11911
   15          H           0.178247        0.8218     0.82175
   16          H           0.173503        0.8265     0.82650
   17          H           0.122367        0.8776     0.87763
   18          H           0.146633        0.8534     0.85337
   19          H           0.139497        0.8605     0.86050
   20          H           0.150102        0.8499     0.84990
   21          H           0.141936        0.8581     0.85806
   22          H           0.131502        0.8685     0.86850
   23          H           0.143378        0.8566     0.85662
   24          H           0.153208        0.8468     0.84679
   25          H           0.138208        0.8618     0.86179
   26          H           0.141853        0.8581     0.85815
 DIPOLE           X         Y         Z       TOTAL
 POINT-CHG.     4.382     1.732     1.477     4.938
 HYBRID         0.265     0.251    -0.124     0.386
 SUM            4.647     1.983     1.353     5.231


          ATOMIC ORBITAL ELECTRON POPULATIONS

     Atom    s        px        py        pz   
    1  C   1.09192   0.98015   1.05336   0.84125
    2  C   1.06850   1.03128   1.05944   1.21091
    3  C   1.09506   0.80547   0.96798   0.86181
    4  C   1.05985   0.93292   0.87109   1.20992
    5  C   1.08997   0.90728   0.85394   0.86017
    6  C   1.06473   1.04657   0.97936   1.23533
    7  C   1.12815   0.89771   0.92407   0.66836
    8  O   1.87898   1.74785   1.44407   1.39372
    9  O   1.86036   1.37287   1.21412   1.86134
   10  C   1.09059   1.11890   0.81033   1.16164
   11  O   1.87483   1.61406   1.36298   1.44682
   12  C   1.08681   1.02729   1.12402   0.97391
   13  O   1.86662   1.22376   1.33501   1.86480
   14  C   1.08906   1.02216   0.94698   1.14997
   15  H   0.82175
   16  H   0.82650
   17  H   0.87763
   18  H   0.85337
   19  H   0.86050
   20  H   0.84990
   21  H   0.85806
   22  H   0.86850
   23  H   0.85662
   24  H   0.84679
   25  H   0.86179
   26  H   0.85815
 ******************** FINITE-FIELD POLARIZABILITIES ********************

    THE F-F METHOD IS PERFORMED USING BOTH AN ENERGY
    AND DIPOLE MOMENT EXPANSION.  THESE RESULTS ARE
    LISTED BELOW AS "H.o.F." AND "Dipole", RESPECTIVELY.

          MOLECULAR WEIGHT =  196.20



          ROTATIONAL CONSTANTS IN CM(-1)

          A =    0.03163201   B =    0.01941314   C =    0.01232815



           PRINCIPAL MOMENTS OF INERTIA IN UNITS OF 10**(-40)*GRAM-CM**2

          A =      884.9509   B =     1441.9501   C =     2270.6388


 ROTATION MATRIX FOR ORIENTATION OF MOLECULE:

         0.994135   -0.100239   -0.040595
         0.098343    0.994076   -0.046286
         0.044994    0.042022    0.998103


          CARTESIAN COORDINATES 

    NO.       ATOM         X         Y         Z

     1         C       -0.9659   -1.8158    0.0599
     2         C        0.4158   -1.9551    0.0034
     3         C        1.2103   -0.8084   -0.0807
     4         C        0.6326    0.4774   -0.1110
     5         C       -0.7614    0.5956   -0.0686
     6         C       -1.5685   -0.5591    0.0198
     7         C       -3.0346   -0.4551    0.0696
     8         O       -3.7354   -1.4371    0.1706
     9         O       -1.4810    1.7336   -0.1268
    10         C       -0.7982    2.9811   -0.1824
    11         O        1.3879    1.6034   -0.3025
    12         C        2.3461    1.8327    0.7314
    13         O        2.5624   -0.7965   -0.1320
    14         C        3.2233   -2.0575   -0.1022
    15         H       -1.6068   -2.7037    0.1355
    16         H        0.8586   -2.9444    0.0233
    17         H       -3.4867    0.5433    0.0118
    18         H       -1.6343    3.6932   -0.1811
    19         H       -0.1604    3.1227    0.6943
    20         H       -0.2169    3.0586   -1.1092
    21         H        2.5509    2.9058    0.6405
    22         H        1.9576    1.5908    1.7227
    23         H        3.2497    1.2499    0.5178
    24         H        4.2794   -1.7625   -0.1717
    25         H        3.0299   -2.5782    0.8406
    26         H        2.9415   -2.6681   -0.9661
  SCF CRITERION =    0.1000E-05


 ENERGY OF "REORIENTED" SYSTEM WITHOUT FIELD:     -120.83545 Kcal/mol


 APPLIED ELECTRIC FIELD MAGNITUDE:         0.10284 VOLTS PER ANGSTROM
    Step  1 of 36 done (+X)
    Step  2 of 36 done (-X)
    Step  3 of 36 done (+2X)
    Step  4 of 36 done (-2X)
    Step  5 of 36 done (+Y)
    Step  6 of 36 done (-Y)
    Step  7 of 36 done (+2Y)
    Step  8 of 36 done (-2Y)
    Step  9 of 36 done (+Y+X)
    Step 10 of 36 done (+Y-X)
    Step 11 of 36 done (-Y-X)
    Step 12 of 36 done (-Y+X)
    Step 13 of 36 done (+2Y+2X)
    Step 14 of 36 done (+2Y-2X)
    Step 15 of 36 done (-2Y-2X)
    Step 16 of 36 done (-2Y+2X)
    Step 17 of 36 done (+Z)
    Step 18 of 36 done (-Z)
    Step 19 of 36 done (+2Z)
    Step 20 of 36 done (-2Z)
    Step 21 of 36 done (+Z+X)
    Step 22 of 36 done (+Z-X)
    Step 23 of 36 done (-Z-X)
    Step 24 of 36 done (-Z+X)
    Step 25 of 36 done (+2Z+2X)
    Step 26 of 36 done (+2Z-2X)
    Step 27 of 36 done (-2Z-2X)
    Step 28 of 36 done (-2Z+2X)
    Step 29 of 36 done (+Z+Y)
    Step 30 of 36 done (+Z-Y)
    Step 31 of 36 done (-Z-Y)
    Step 32 of 36 done (-Z+Y)
    Step 33 of 36 done (+2Z+2Y)
    Step 34 of 36 done (+2Z-2Y)
    Step 35 of 36 done (-2Z-2Y)
    Step 36 of 36 done (-2Z+2Y)


 ****************************** DIPOLE ******************************


                     H.o.F.         Dipole

     X             -1.918299      -1.918278
     Y             -0.614485      -0.614535
     X             -0.421137      -0.421184


 MAGNITUDE:         2.057868       2.057872  (A.U.)
                    5.230578       5.230589  (DEBYE)


 ****************************** POLARIZABILITY ********************



 Polarizability Tensor from Heat of Formation:


                     1          2          3
 ------------------------------------------
          1 160.459435
          2   3.943829 149.566338
          3  -1.071452  -2.801690 108.204758




    ROOT NO.    1           2           3

           108.00344   148.42307   161.80402
  
         1   0.01543    -0.31548    -0.94881
         2   0.06579     0.94718    -0.31387
         3   0.99771    -0.05758     0.03537

 Polarizability Tensor from Dipole Moment:


                     1          2          3
 ------------------------------------------
          1 160.456744
          2   3.890801 149.550369
          3  -1.101458  -2.776795 108.200716




    ROOT NO.    1           2           3

           108.00155   148.43622   161.77007
  
         1   0.01612    -0.31217    -0.94989
         2   0.06517     0.94832    -0.31055
         3   0.99774    -0.05690     0.03563


 Average Polarizability from:     H.o.F         Dipole
                              139.410177     139.402610  A.U.
                               20.657800      20.656679  ANG.**3
                            4.131448D-23   4.131224D-23  ESU

 **********************
 *                    *
 * JOB ENDED NORMALLY *
 *                    *
 **********************



 TOTAL JOB TIME:             1.04 SECONDS

 == MOPAC DONE ==
