 *******************************************************************************
 ** Site#: 32691        For non-commercial use only    Version 19.179W 32BITS **
 *******************************************************************************
 ** Cite this program as: MOPAC2016, Version: 19.179W, James J. P. Stewart,   **
 ** Stewart Computational Chemistry, web: HTTP://OpenMOPAC.net. Days left: 242**
 *******************************************************************************
 **                                                                           **
 **                                MOPAC2016                                  **
 **                                                                           **
 *******************************************************************************

                              PM7 CALCULATION RESULTS

 *******************************************************************************
 *  CALCULATION DONE:                                Tue Oct 29 11:51:53 2019  *
 *  STATIC     - CALCULATE STATIC FIELD POLARIZABILITIES
 *  T=         - A TIME OF 172800.0 SECONDS REQUESTED
 *  DUMP=N     - RESTART FILE WRITTEN EVERY  7200.000 SECONDS
 *  RELSCF     - DEFAULT SCF CRITERION MULTIPLIED BY 0.0100
 *              (DEFAULT SCF CRITERION = 0.00010)
 *******************************************************************************
STATIC RELSCF=0.01
 2,4-dimethoxy-3-methylbenzaldehyde.mop

  ATOM    CHEMICAL      BOND LENGTH      BOND ANGLE     TWIST ANGLE 
 NUMBER    SYMBOL       (ANGSTROMS)      (DEGREES)       (DEGREES) 
   (I)                     NA:I           NB:NA:I       NC:NB:NA:I       NA    NB    NC 
     1       C          0.00000000       0.0000000       0.0000000        0     0     0
     2       C          1.33482800  *    0.0000000       0.0000000        1     0     0
     3       C          1.34357600  *  121.4825050  *    0.0000000        2     1     0
     4       C          1.35946800  *  117.7613350  *   -0.0018190  *     3     2     1
     5       C          1.36364800  *  122.2106760  *    0.0067160  *     4     3     2
     6       C          1.34169200  *  120.3418830  *   -0.0012950  *     1     2     3
     7       C          1.36655800  *  117.6534430  * -179.9989550  *     6     1     2
     8       O          1.21232900  *  126.1437000  *   -0.0031940  *     7     6     1
     9       O          1.38207100  *  127.8846840  * -179.9994380  *     5     4     3
    10       C          1.40265000  *  125.7802870  *    0.0558850  *     9     5     4
    11       C          1.52282100  *  115.2925420  * -179.9983880  *     4     3     2
    12       O          1.37822100  *  122.2376950  * -179.9988590  *     3     2     1
    13       C          1.40886100  *  120.0145200  *    0.0152730  *    12     3     2
    14       H          1.10307100  *  117.0453380  *  179.9998510  *     1     2     3
    15       H          1.10116300  *  116.6322870  *  179.9985200  *     2     1     6
    16       H          1.11394400  *  117.4826330  *  179.9968090  *     7     6     1
    17       H          1.11369000  *  106.9471460  *  179.9724150  *    10     9     5
    18       H          1.10965700  *  111.1125630  *  -64.6487140  *    10     9     5
    19       H          1.10966400  *  111.1104480  *   64.5891630  *    10     9     5
    20       H          1.10925800  *  115.7461240  *   -0.0036730  *    11     4     3
    21       H          1.11074700  *  111.3431930  *  116.9172720  *    11     4     3
    22       H          1.11074800  *  111.3408990  * -116.9248070  *    11     4     3
    23       H          1.11327200  *  107.6475300  *  179.9955050  *    13    12     3
    24       H          1.11284300  *  110.4771380  *  -62.4152570  *    13    12     3
    25       H          1.11284400  *  110.4758680  *   62.4056750  *    13    12     3
 


          CARTESIAN COORDINATES 

    NO.       ATOM           X           Y           Z

     1         C          0.0000      0.0000      0.0000
     2         C          1.3348      0.0000      0.0000
     3         C          2.0365      1.1458      0.0000
     4         C          1.3413      2.3141     -0.0000
     5         C         -0.0219      2.3487      0.0001
     6         C         -0.6778      1.1579      0.0000
     7         C         -2.0428      1.0938      0.0000
     8         O         -2.7112      0.0824     -0.0000
     9         O         -0.8427      3.4607      0.0000
    10         C         -0.4141      4.7962     -0.0012
    11         C          2.1918      3.5773     -0.0001
    12         O          3.4146      1.1640     -0.0000
    13         C          4.1354     -0.0466     -0.0004
    14         H         -0.5016     -0.9824     -0.0000
    15         H          1.8284     -0.9843      0.0000
    16         H         -2.6027      2.0569      0.0001
    17         H         -1.3293      5.4308     -0.0014
    18         H          0.1308      5.0420      0.9336
    19         H          0.1302      5.0405     -0.9369
    20         H          3.2897      3.4189     -0.0000
    21         H          2.0290      4.1741     -0.9226
    22         H          2.0289      4.1742      0.9223
    23         H          5.2196      0.2062     -0.0004
    24         H          3.9197     -0.6283      0.9235
    25         H          3.9196     -0.6279     -0.9245

 General Reference for PM7:
 "Optimization of Parameters for Semiempirical Methods VI: More Modifications to the 
 NDDO Approximations and Re-optimization of Parameters", J. J. P. Stewart, J. Mol. Mod., 1:32, 19 (2013)
 http://www.springerlink.com/openurl.asp?genre=article&id=doi:10.1007/s00894-012-1667-x

           Empirical Formula: C10 H12 O3  =    25 atoms



      MOLECULAR POINT GROUP   :   Cs  


      RHF CALCULATION, NO. OF DOUBLY OCCUPIED LEVELS = 35


          Geometry optimization using EF
  SCF CRITERION =    0.1000E-05

          DIAGONAL MATRIX USED AS START HESSIAN

 CYCLE:     1 TIME:   0.047 TIME LEFT:  2.00D  GRAD.:   495.299 HEAT: -64.43225
 CYCLE:     2 TIME:   0.078 TIME LEFT:  2.00D  GRAD.:   399.295 HEAT: -69.15710
 CYCLE:     3 TIME:   0.031 TIME LEFT:  2.00D  GRAD.:   177.299 HEAT: -81.19228
 CYCLE:     4 TIME:   0.016 TIME LEFT:  2.00D  GRAD.:   113.585 HEAT: -88.55245
 CYCLE:     5 TIME:   0.047 TIME LEFT:  2.00D  GRAD.:    89.374 HEAT: -90.04576
 CYCLE:     6 TIME:   0.016 TIME LEFT:  2.00D  GRAD.:    26.985 HEAT: -91.79655
 CYCLE:     7 TIME:   0.031 TIME LEFT:  2.00D  GRAD.:    38.742 HEAT: -92.32943
 CYCLE:     8 TIME:   0.016 TIME LEFT:  2.00D  GRAD.:    14.979 HEAT: -92.47721
 CYCLE:     9 TIME:   0.031 TIME LEFT:  2.00D  GRAD.:     9.349 HEAT: -92.53915
 CYCLE:    10 TIME:   0.031 TIME LEFT:  2.00D  GRAD.:    10.097 HEAT: -92.56890
 CYCLE:    11 TIME:   0.016 TIME LEFT:  2.00D  GRAD.:     4.292 HEAT: -92.59368
 CYCLE:    12 TIME:   0.031 TIME LEFT:  2.00D  GRAD.:     1.703 HEAT: -92.59951
 CYCLE:    13 TIME:   0.016 TIME LEFT:  2.00D  GRAD.:     0.836 HEAT: -92.60150

     GRADIENT =  0.83594 IS LESS THAN CUTOFF =  1.00000



 -------------------------------------------------------------------------------
 STATIC RELSCF=0.01
 2,4-dimethoxy-3-methylbenzaldehyde.mop



     GEOMETRY OPTIMISED USING EIGENVECTOR FOLLOWING (EF).     
     SCF FIELD WAS ACHIEVED                                   


                              PM7 CALCULATION
                                                       MOPAC2016 (Version: 19.179W)
                                                       Tue Oct 29 11:51:53 2019
                                                       No. of days remaining = 242




          FINAL HEAT OF FORMATION =        -92.60150 KCAL/MOL =    -387.44469 KJ/MOL


          TOTAL ENERGY            =      -2275.34524 EV
          ELECTRONIC ENERGY       =     -12584.33735 EV  POINT GROUP:     Cs  
          CORE-CORE REPULSION     =      10308.99211 EV
          COSMO AREA              =        210.51 SQUARE ANGSTROMS
          COSMO VOLUME            =        216.84 CUBIC ANGSTROMS

          GRADIENT NORM           =          0.83594 = 0.16719 PER ATOM
          IONIZATION POTENTIAL    =          9.145759 EV
          HOMO LUMO ENERGIES (EV) =         -9.146 -0.268
          NO. OF FILLED LEVELS    =         35
          MOLECULAR WEIGHT        =        180.2030

          MOLECULAR DIMENSIONS (Angstroms)

            Atom       Atom       Distance
            H    23    H    17     8.18424
            O     8    H    21     6.29543
            H    22    H    25     2.17056


          SCF CALCULATIONS        =         18
 
          WALL-CLOCK TIME         =          0.437 SECONDS
          COMPUTATION TIME        =          0.764 SECONDS




  ATOM    CHEMICAL      BOND LENGTH      BOND ANGLE     TWIST ANGLE 
 NUMBER    SYMBOL       (ANGSTROMS)      (DEGREES)       (DEGREES) 
   (I)                     NA:I           NB:NA:I       NC:NB:NA:I       NA    NB    NC 
     1       C          0.00000000       0.0000000       0.0000000        0     0     0
     2       C          1.38880876  *    0.0000000       0.0000000        1     0     0
     3       C          1.39664261  *  118.5275536  *    0.0000000        2     1     0
     4       C          1.41288795  *  123.0774492  *   -0.0217893  *     3     2     1
     5       C          1.39587036  *  116.6863077  *    0.0109690  *     4     3     2
     6       C          1.39253659  *  120.7688075  *   -0.0054568  *     1     2     3
     7       C          1.46966158  *  119.1807413  *  179.9992551  *     6     1     2
     8       O          1.21118295  *  121.5030093  *   -0.0026387  *     7     6     1
     9       O          1.35240619  *  129.0013367  *  179.9857800  *     5     4     3
    10       C          1.41639920  *  122.0539603  *    0.1076608  *     9     5     4
    11       C          1.48880255  *  118.1554656  * -179.9893352  *     4     3     2
    12       O          1.35586726  *  123.9787616  *  179.9897871  *     3     2     1
    13       C          1.42245310  *  117.6374947  *    0.0560227  *    12     3     2
    14       H          1.09741632  *  120.3897898  *  179.9998761  *     1     2     3
    15       H          1.08326233  *  119.8394630  *  179.9978085  *     2     1     6
    16       H          1.09786756  *  118.5601489  *  179.9992182  *     7     6     1
    17       H          1.10103373  *  101.3157748  *  179.9797431  *    10     9     5
    18       H          1.09324804  *  111.0807915  *  -62.9123577  *    10     9     5
    19       H          1.09323845  *  111.0708043  *   62.8756704  *    10     9     5
    20       H          1.10329974  *  112.6119775  *   -0.0186465  *    11     4     3
    21       H          1.09866415  *  111.9526927  *  118.4392273  *    11     4     3
    22       H          1.09868100  *  111.9596076  * -118.4841806  *    11     4     3
    23       H          1.09862160  *  102.0110154  * -179.9918403  *    13    12     3
    24       H          1.09462430  *  110.8716617  *  -62.3410581  *    13    12     3
    25       H          1.09461041  *  110.8612862  *   62.3643142  *    13    12     3

                             CARTESIAN COORDINATES

   1    C        0.000000000     0.000000000     0.000000000
   2    C        1.388808759     0.000000000     0.000000000
   3    C        2.055819193     1.227072800     0.000000000
   4    C        1.383924077     2.469976299    -0.000450233
   5    C       -0.011325594     2.428354477    -0.000670091
   6    C       -0.712387132     1.196521092     0.000113956
   7    C       -2.181484232     1.155791723     0.000093395
   8    O       -2.785517902     0.105978672    -0.000067878
   9    O       -0.893406891     3.453505712    -0.000834938
  10    C       -0.473717096     4.806296247    -0.003057477
  11    C        2.204555573     3.712190835    -0.000645983
  12    O        3.405554475     1.355877564     0.000200414
  13    C        4.182124049     0.164109337    -0.000808668
  14    H       -0.555161030    -0.946635527    -0.000002047
  15    H        1.927809248    -0.939646607    -0.000053551
  16    H       -2.732875691     2.105149728     0.000197123
  17    H       -1.440849108     5.332538497    -0.002872638
  18    H        0.087585214     5.045361590     0.904124288
  19    H        0.085813475     5.042737691    -0.912008134
  20    H        3.288176958     3.504742796    -0.000073855
  21    H        2.026200559     4.322131894    -0.896873802
  22    H        2.025393617     4.323102251     0.894780268
  23    H        5.207240832     0.559210171    -0.000239374
  24    H        3.997184152    -0.422642599     0.904576200
  25    H        3.997481512    -0.420687556    -0.907501382


           Empirical Formula: C10 H12 O3  =    25 atoms



      MOLECULAR POINT GROUP   :   Cs  


                  EIGENVALUES  
 -31.34318 -30.99196 -30.55240 -29.95547 -27.64088 -26.38330 -25.21004 -24.79408
 -23.56664 -22.49715 -20.90718 -19.36276 -18.38654 -17.54281 -16.57889 -16.57106
 -16.12157 -16.05469 -15.31166 -14.50856 -14.43069 -14.30946 -14.10348 -13.99597
 -13.65175 -13.45968 -13.16639 -13.12805 -12.41846 -12.04032 -11.97268 -11.40427
  -9.82984  -9.29664  -9.14576  -0.26847   0.17234   1.28337   1.41062   1.55883
   2.49638   3.51131   3.67136   3.96859   4.17347   4.28954   4.45852   4.79023
   4.91548   5.07041   5.08576   5.10255   5.15124   5.28981   5.51031   5.54741
   5.61145   5.62653   5.69576   5.77667   5.89268   6.05910   6.19623   6.76885


              NET ATOMIC CHARGES AND DIPOLE CONTRIBUTIONS

  ATOM NO.   TYPE          CHARGE      No. of ELECS.   s-Pop       p-Pop       
    1          C           0.045349        3.9547     1.09276     2.86189
    2          C          -0.386551        4.3866     1.06824     3.31831
    3          C           0.319531        3.6805     1.09291     2.58756
    4          C          -0.233353        4.2334     1.04831     3.18504
    5          C           0.326845        3.6732     1.09165     2.58151
    6          C          -0.339426        4.3394     1.06513     3.27430
    7          C           0.381751        3.6182     1.12798     2.49027
    8          O          -0.469089        6.4691     1.87900     4.59009
    9          O          -0.330654        6.3307     1.85702     4.47364
   10          C          -0.185423        4.1854     1.08903     3.09639
   11          C          -0.411062        4.4111     1.04174     3.36932
   12          O          -0.313303        6.3133     1.86456     4.44875
   13          C          -0.200448        4.2004     1.08855     3.11190
   14          H           0.176886        0.8231     0.82311
   15          H           0.173102        0.8269     0.82690
   16          H           0.121032        0.8790     0.87897
   17          H           0.151961        0.8480     0.84804
   18          H           0.136985        0.8630     0.86301
   19          H           0.136963        0.8630     0.86304
   20          H           0.167480        0.8325     0.83252
   21          H           0.150487        0.8495     0.84951
   22          H           0.150501        0.8495     0.84950
   23          H           0.152088        0.8479     0.84791
   24          H           0.139177        0.8608     0.86082
   25          H           0.139168        0.8608     0.86083
 DIPOLE           X         Y         Z       TOTAL
 POINT-CHG.     4.109     2.645    -0.005     4.886
 HYBRID         0.231     0.116     0.000     0.259
 SUM            4.340     2.761    -0.005     5.144


          ATOMIC ORBITAL ELECTRON POPULATIONS

     Atom    s        px        py        pz   
    1  C   1.09276   0.98132   1.05086   0.82971
    2  C   1.06824   1.03414   1.06198   1.22219
    3  C   1.09291   0.79386   0.95986   0.83384
    4  C   1.04831   0.97069   0.99120   1.22314
    5  C   1.09165   0.90213   0.84084   0.83854
    6  C   1.06513   1.04531   0.98386   1.24513
    7  C   1.12798   0.89979   0.92324   0.66724
    8  O   1.87900   1.74771   1.44593   1.39644
    9  O   1.85702   1.38834   1.21464   1.87065
   10  C   1.08903   1.14634   0.80455   1.14550
   11  C   1.04174   1.14422   1.06311   1.16200
   12  O   1.86456   1.23734   1.34489   1.86652
   13  C   1.08855   1.02131   0.94213   1.14846
   14  H   0.82311
   15  H   0.82690
   16  H   0.87897
   17  H   0.84804
   18  H   0.86301
   19  H   0.86304
   20  H   0.83252
   21  H   0.84951
   22  H   0.84950
   23  H   0.84791
   24  H   0.86082
   25  H   0.86083
 ******************** FINITE-FIELD POLARIZABILITIES ********************

    THE F-F METHOD IS PERFORMED USING BOTH AN ENERGY
    AND DIPOLE MOMENT EXPANSION.  THESE RESULTS ARE
    LISTED BELOW AS "H.o.F." AND "Dipole", RESPECTIVELY.

          MOLECULAR WEIGHT =  180.20



          ROTATIONAL CONSTANTS IN CM(-1)

          A =    0.03715550   B =    0.02128225   C =    0.01363959



           PRINCIPAL MOMENTS OF INERTIA IN UNITS OF 10**(-40)*GRAM-CM**2

          A =      753.3951   B =     1315.3111   C =     2052.3175


 ROTATION MATRIX FOR ORIENTATION OF MOLECULE:

         0.991912    0.126924    0.000001
        -0.126924    0.991912    0.000401
         0.000049   -0.000398    1.000000


          CARTESIAN COORDINATES 

    NO.       ATOM         X         Y         Z

     1         C       -0.3733   -1.7959   -0.0002
     2         C        1.0043   -1.6197   -0.0002
     3         C        1.5101   -0.3179    0.0003
     4         C        0.6859    0.8297    0.0004
     5         C       -0.6928    0.6113    0.0001
     6         C       -1.2318   -0.6995    0.0004
     7         C       -2.6838   -0.9264    0.0004
     8         O       -3.1497   -2.0444   -0.0002
     9         O       -1.6978    1.5162    0.0004
    10         C       -1.4532    2.9114   -0.0013
    11         C        1.3423    2.1660    0.0007
    12         O        2.8326   -0.0188    0.0006
    13         C        3.7542   -1.1023   -0.0009
    14         H       -0.8038   -2.8054   -0.0006
    15         H        1.6582   -2.4833   -0.0006
    16         H       -3.3513   -0.0547    0.0009
    17         H       -2.4793    3.3106   -0.0009
    18         H       -0.9268    3.2194    0.9060
    19         H       -0.9283    3.2173   -0.9102
    20         H        2.4434    2.0978    0.0012
    21         H        1.0879    2.7488   -0.8953
    22         H        1.0870    2.7489    0.8963
    23         H        4.7208   -0.5803   -0.0002
    24         H        3.6452   -1.7082    0.9042
    25         H        3.6452   -1.7055   -0.9078
  SCF CRITERION =    0.1000E-05


 ENERGY OF "REORIENTED" SYSTEM WITHOUT FIELD:      -92.60150 Kcal/mol


 APPLIED ELECTRIC FIELD MAGNITUDE:         0.10284 VOLTS PER ANGSTROM
    Step  1 of 36 done (+X)
    Step  2 of 36 done (-X)
    Step  3 of 36 done (+2X)
    Step  4 of 36 done (-2X)
    Step  5 of 36 done (+Y)
    Step  6 of 36 done (-Y)
    Step  7 of 36 done (+2Y)
    Step  8 of 36 done (-2Y)
    Step  9 of 36 done (+Y+X)
    Step 10 of 36 done (+Y-X)
    Step 11 of 36 done (-Y-X)
    Step 12 of 36 done (-Y+X)
    Step 13 of 36 done (+2Y+2X)
    Step 14 of 36 done (+2Y-2X)
    Step 15 of 36 done (-2Y-2X)
    Step 16 of 36 done (-2Y+2X)
    Step 17 of 36 done (+Z)
    Step 18 of 36 done (-Z)
    Step 19 of 36 done (+2Z)
    Step 20 of 36 done (-2Z)
    Step 21 of 36 done (+Z+X)
    Step 22 of 36 done (+Z-X)
    Step 23 of 36 done (-Z-X)
    Step 24 of 36 done (-Z+X)
    Step 25 of 36 done (+2Z+2X)
    Step 26 of 36 done (+2Z-2X)
    Step 27 of 36 done (-2Z-2X)
    Step 28 of 36 done (-2Z+2X)
    Step 29 of 36 done (+Z+Y)
    Step 30 of 36 done (+Z-Y)
    Step 31 of 36 done (-Z-Y)
    Step 32 of 36 done (-Z+Y)
    Step 33 of 36 done (+2Z+2Y)
    Step 34 of 36 done (+2Z-2Y)
    Step 35 of 36 done (-2Z-2Y)
    Step 36 of 36 done (-2Z+2Y)


 ****************************** DIPOLE ******************************


                     H.o.F.         Dipole

     X             -1.555787      -1.555729
     Y             -1.294067      -1.294046
     X              0.001612       0.001632


 MAGNITUDE:         2.023632       2.023574  (A.U.)
                    5.143558       5.143411  (DEBYE)


 ****************************** POLARIZABILITY ********************



 Polarizability Tensor from Heat of Formation:


                     1          2          3
 ------------------------------------------
          1 154.742487
          2   3.929821 144.525332
          3  -0.000272   0.012613 104.253006




    ROOT NO.    1           2           3

           104.25300   143.18868   156.07914
  
         1   0.00003    -0.32201    -0.94673
         2  -0.00032     0.94673    -0.32201
         3   1.00000     0.00031    -0.00007

 Polarizability Tensor from Dipole Moment:


                     1          2          3
 ------------------------------------------
          1 154.741187
          2   3.904701 144.526914
          3  -0.012298   0.031532 104.256058




    ROOT NO.    1           2           3

           104.25603   143.20527   156.06286
  
         1   0.00031    -0.32061    -0.94721
         2  -0.00081     0.94721    -0.32061
         3   1.00000     0.00087     0.00003


 Average Polarizability from:     H.o.F         Dipole
                              134.506941     134.508053  A.U.
                               19.931239      19.931403  ANG.**3
                            3.986140D-23   3.986173D-23  ESU

 **********************
 *                    *
 * JOB ENDED NORMALLY *
 *                    *
 **********************



 TOTAL JOB TIME:             0.61 SECONDS

 == MOPAC DONE ==
