 *******************************************************************************
 ** Site#: 32691        For non-commercial use only    Version 19.179W 32BITS **
 *******************************************************************************
 ** Cite this program as: MOPAC2016, Version: 19.179W, James J. P. Stewart,   **
 ** Stewart Computational Chemistry, web: HTTP://OpenMOPAC.net. Days left: 242**
 *******************************************************************************
 **                                                                           **
 **                                MOPAC2016                                  **
 **                                                                           **
 *******************************************************************************

                              PM7 CALCULATION RESULTS

 *******************************************************************************
 *  CALCULATION DONE:                                Tue Oct 29 11:48:16 2019  *
 *  STATIC     - CALCULATE STATIC FIELD POLARIZABILITIES
 *  T=         - A TIME OF 172800.0 SECONDS REQUESTED
 *  DUMP=N     - RESTART FILE WRITTEN EVERY  7200.000 SECONDS
 *  RELSCF     - DEFAULT SCF CRITERION MULTIPLIED BY 0.0100
 *              (DEFAULT SCF CRITERION = 0.00010)
 *******************************************************************************
STATIC RELSCF=0.01
 2,5-dihydroxybenzaldehyde.mop

  ATOM    CHEMICAL      BOND LENGTH      BOND ANGLE     TWIST ANGLE 
 NUMBER    SYMBOL       (ANGSTROMS)      (DEGREES)       (DEGREES) 
   (I)                     NA:I           NB:NA:I       NC:NB:NA:I       NA    NB    NC 
     1       C          0.00000000       0.0000000       0.0000000        0     0     0
     2       C          1.34859300  *    0.0000000       0.0000000        1     0     0
     3       C          1.34326400  *  122.8883660  *    0.0000000        2     1     0
     4       C          1.34057000  *  117.2882740  *   -0.0161560  *     3     2     1
     5       C          1.33934800  *  120.4373870  *    0.0227130  *     4     3     2
     6       C          1.35266700  *  119.4000600  *   -0.0087000  *     1     2     3
     7       O          1.36422900  *  124.8922540  *  179.9981350  *     6     1     2
     8       C          1.36284000  *  117.8087660  *  179.9973700  *     1     2     3
     9       O          1.20955500  *  126.6214840  * -179.9976100  *     8     1     2
    10       O          1.36021600  *  121.7475260  * -179.9935440  *     3     2     1
    11       H          1.10403800  *  121.0422470  *  179.9929450  *     2     1     6
    12       H          1.10278900  *  119.6569470  * -179.9802950  *     4     3     2
    13       H          1.10381600  *  118.5202150  *  179.9968100  *     5     4     3
    14       H          0.96545100  *  114.0144860  *   -0.1800040  *     7     6     1
    15       H          1.11655000  *  115.6251910  *   -0.0014320  *     8     1     2
    16       H          0.97082700  *  109.2919020  *  179.8816190  *    10     3     2
 


          CARTESIAN COORDINATES 

    NO.       ATOM           X           Y           Z

     1         C          0.0000      0.0000      0.0000
     2         C          1.3486      0.0000      0.0000
     3         C          2.0780      1.1280      0.0000
     4         C          1.4113      2.2910     -0.0003
     5         C          0.0720      2.3054     -0.0002
     6         C         -0.6640      1.1785      0.0002
     7         O         -2.0220      1.3090      0.0002
     8         C         -0.6358     -1.2054     -0.0001
     9         O         -1.8311     -1.3908     -0.0001
    10         O          3.4379      1.1009     -0.0001
    11         H          1.9179     -0.9459     -0.0000
    12         H          1.9713      3.2410     -0.0007
    13         H         -0.4446      3.2808     -0.0004
    14         H         -2.4975      0.4688     -0.0028
    15         H          0.0294     -2.1022     -0.0001
    16         H          3.7769      2.0106     -0.0020

 General Reference for PM7:
 "Optimization of Parameters for Semiempirical Methods VI: More Modifications to the 
 NDDO Approximations and Re-optimization of Parameters", J. J. P. Stewart, J. Mol. Mod., 1:32, 19 (2013)
 http://www.springerlink.com/openurl.asp?genre=article&id=doi:10.1007/s00894-012-1667-x

           Empirical Formula: C7 H6 O3  =    16 atoms



      MOLECULAR POINT GROUP   :   Cs  


      RHF CALCULATION, NO. OF DOUBLY OCCUPIED LEVELS = 26


          Geometry optimization using EF
  SCF CRITERION =    0.1000E-05

          DIAGONAL MATRIX USED AS START HESSIAN

 CYCLE:     1 TIME:   0.016 TIME LEFT:  2.00D  GRAD.:   502.938 HEAT: -72.51007
 CYCLE:     2 TIME:   0.047 TIME LEFT:  2.00D  GRAD.:   395.824 HEAT: -78.07991
 CYCLE:     3 TIME:   0.016 TIME LEFT:  2.00D  GRAD.:   174.039 HEAT: -90.18259
 CYCLE:     4 TIME:   0.016 TIME LEFT:  2.00D  GRAD.:    64.400 HEAT: -97.18263
 CYCLE:     5 TIME:   0.031 TIME LEFT:  2.00D  GRAD.:    57.668 HEAT: -97.94391
 CYCLE:     6 TIME:   0.016 TIME LEFT:  2.00D  GRAD.:    19.521 HEAT: -98.85323
 CYCLE:     7 TIME:   0.016 TIME LEFT:  2.00D  GRAD.:    31.254 HEAT: -99.27702
 CYCLE:     8 TIME:   0.000 TIME LEFT:  2.00D  GRAD.:    12.380 HEAT: -99.44088
 CYCLE:     9 TIME:   0.016 TIME LEFT:  2.00D  GRAD.:     7.279 HEAT: -99.49151
 CYCLE:    10 TIME:   0.016 TIME LEFT:  2.00D  GRAD.:     4.412 HEAT: -99.50855
 CYCLE:    11 TIME:   0.016 TIME LEFT:  2.00D  GRAD.:     5.804 HEAT: -99.50400
 CYCLE:    12 TIME:   0.016 TIME LEFT:  2.00D  GRAD.:     2.965 HEAT: -99.51577
 CYCLE:    13 TIME:   0.000 TIME LEFT:  2.00D  GRAD.:     0.893 HEAT: -99.51751

     GRADIENT =  0.89324 IS LESS THAN CUTOFF =  1.00000



 -------------------------------------------------------------------------------
 STATIC RELSCF=0.01
 2,5-dihydroxybenzaldehyde.mop



     GEOMETRY OPTIMISED USING EIGENVECTOR FOLLOWING (EF).     
     SCF FIELD WAS ACHIEVED                                   


                              PM7 CALCULATION
                                                       MOPAC2016 (Version: 19.179W)
                                                       Tue Oct 29 11:48:16 2019
                                                       No. of days remaining = 242




          FINAL HEAT OF FORMATION =        -99.51751 KCAL/MOL =    -416.38124 KJ/MOL


          TOTAL ENERGY            =      -1826.36569 EV
          ELECTRONIC ENERGY       =      -8034.96124 EV  POINT GROUP:     Cs  
          CORE-CORE REPULSION     =       6208.59555 EV
          COSMO AREA              =        159.14 SQUARE ANGSTROMS
          COSMO VOLUME            =        154.43 CUBIC ANGSTROMS

          GRADIENT NORM           =          0.89324 = 0.22331 PER ATOM
          IONIZATION POTENTIAL    =          9.023201 EV
          HOMO LUMO ENERGIES (EV) =         -9.023 -1.111
          NO. OF FILLED LEVELS    =         26
          MOLECULAR WEIGHT        =        138.1226

          MOLECULAR DIMENSIONS (Angstroms)

            Atom       Atom       Distance
            H    16    O     9     6.69368
            H    15    H    13     5.04815
            O     7    H    16     0.00151


          SCF CALCULATIONS        =         17
 
          WALL-CLOCK TIME         =          0.250 SECONDS
          COMPUTATION TIME        =          0.468 SECONDS




  ATOM    CHEMICAL      BOND LENGTH      BOND ANGLE     TWIST ANGLE 
 NUMBER    SYMBOL       (ANGSTROMS)      (DEGREES)       (DEGREES) 
   (I)                     NA:I           NB:NA:I       NC:NB:NA:I       NA    NB    NC 
     1       C          0.00000000       0.0000000       0.0000000        0     0     0
     2       C          1.40275627  *    0.0000000       0.0000000        1     0     0
     3       C          1.38696770  *  118.9660805  *    0.0000000        2     1     0
     4       C          1.40719942  *  122.3669562  *   -0.0148376  *     3     2     1
     5       C          1.37953544  *  119.0866013  *    0.0023236  *     4     3     2
     6       C          1.40278838  *  118.7872282  *   -0.0117287  *     1     2     3
     7       O          1.34250335  *  123.1179819  * -179.9751431  *     6     1     2
     8       C          1.46429031  *  119.8853237  *  179.9917982  *     1     2     3
     9       O          1.21710463  *  121.9538132  * -179.9844621  *     8     1     2
    10       O          1.36350220  *  115.3264439  *  179.9915812  *     3     2     1
    11       H          1.08977237  *  121.1145925  *  179.9973407  *     2     1     6
    12       H          1.08827767  *  120.1420985  * -179.9933609  *     4     3     2
    13       H          1.08940096  *  122.0306355  *  179.9916733  *     5     4     3
    14       H          1.01570777  *  110.7529101  *   -0.0638099  *     7     6     1
    15       H          1.09881005  *  118.5181507  *    0.0128317  *     8     1     2
    16       H          0.98604556  *  111.9252204  *  179.9076893  *    10     3     2

                             CARTESIAN COORDINATES

   1    C        0.000000000     0.000000000     0.000000000
   2    C        1.402756271     0.000000000     0.000000000
   3    C        2.074453291     1.213467142     0.000000000
   4    C        1.399394918     2.448176142    -0.000307798
   5    C        0.019896505     2.458279845    -0.000572727
   6    C       -0.675524421     1.229423414     0.000251669
   7    O       -2.014194491     1.330801105     0.000760230
   8    C       -0.729605590    -1.269575427    -0.000181738
   9    O       -1.945917113    -1.313505715    -0.000468077
  10    O        3.435205369     1.126910762     0.000181090
  11    H        1.965897664    -0.932992807    -0.000147684
  12    H        1.963004929     3.379139100    -0.000405909
  13    H       -0.551112329     3.386042392    -0.000681967
  14    H       -2.444795160     0.410885598    -0.000129965
  15    H       -0.153901383    -2.205496467    -0.000099488
  16    H        3.860716207     2.016418588    -0.001301245


           Empirical Formula: C7 H6 O3  =    16 atoms



      MOLECULAR POINT GROUP   :   Cs  


                  EIGENVALUES  
 -31.85467 -31.20524 -30.48090 -29.91643 -27.17012 -25.39876 -23.55389 -21.84719
 -20.78231 -18.88337 -18.11139 -16.51365 -16.30773 -15.52258 -15.46403 -15.16386
 -14.92520 -14.37608 -13.92480 -13.81185 -13.49740 -12.59098 -11.89491 -10.72850
 -10.71614  -9.02320  -1.11121  -0.03252   0.66534   2.04105   2.04409   2.39509
   3.10741   3.59411   3.79653   4.10639   4.15970   4.35146   4.64740   4.89416
   5.10226   5.18989   5.34648   5.59651   5.68829   5.92043


              NET ATOMIC CHARGES AND DIPOLE CONTRIBUTIONS

  ATOM NO.   TYPE          CHARGE      No. of ELECS.   s-Pop       p-Pop       
    1          C          -0.304011        4.3040     1.06627     3.23774
    2          C          -0.131921        4.1319     1.07855     3.05337
    3          C           0.184217        3.8158     1.06845     2.74733
    4          C          -0.172767        4.1728     1.08640     3.08636
    5          C          -0.212226        4.2122     1.07877     3.13345
    6          C           0.329163        3.6708     1.08038     2.59046
    7          O          -0.467071        6.4671     1.84397     4.62310
    8          C           0.385969        3.6140     1.13379     2.48024
    9          O          -0.489311        6.4893     1.87868     4.61063
   10          O          -0.468079        6.4681     1.83991     4.62817
   11          H           0.175257        0.8247     0.82474
   12          H           0.161590        0.8384     0.83841
   13          H           0.182986        0.8170     0.81701
   14          H           0.375616        0.6244     0.62438
   15          H           0.126350        0.8737     0.87365
   16          H           0.324239        0.6758     0.67576
 DIPOLE           X         Y         Z       TOTAL
 POINT-CHG.     2.916     1.051    -0.003     3.099
 HYBRID        -0.168     0.152    -0.000     0.227
 SUM            2.748     1.203    -0.004     3.000


          ATOMIC ORBITAL ELECTRON POPULATIONS

     Atom    s        px        py        pz   
    1  C   1.06627   1.00848   1.02376   1.20550
    2  C   1.07855   0.98521   1.06161   1.00655
    3  C   1.06845   0.78216   0.96636   0.99881
    4  C   1.08640   1.02007   1.05356   1.01274
    5  C   1.07877   1.00013   1.06617   1.06715
    6  C   1.08038   0.78969   0.94819   0.85258
    7  O   1.84397   1.26826   1.49056   1.86429
    8  C   1.13379   0.85462   0.97422   0.65140
    9  O   1.87868   1.27742   1.91045   1.42276
   10  O   1.83991   1.27287   1.43708   1.91822
   11  H   0.82474
   12  H   0.83841
   13  H   0.81701
   14  H   0.62438
   15  H   0.87365
   16  H   0.67576
 ******************** FINITE-FIELD POLARIZABILITIES ********************

    THE F-F METHOD IS PERFORMED USING BOTH AN ENERGY
    AND DIPOLE MOMENT EXPANSION.  THESE RESULTS ARE
    LISTED BELOW AS "H.o.F." AND "Dipole", RESPECTIVELY.

          MOLECULAR WEIGHT =  138.12



          ROTATIONAL CONSTANTS IN CM(-1)

          A =    0.08984696   B =    0.03396045   C =    0.02464508



           PRINCIPAL MOMENTS OF INERTIA IN UNITS OF 10**(-40)*GRAM-CM**2

          A =      311.5606   B =      824.2756   C =     1135.8362


 ROTATION MATRIX FOR ORIENTATION OF MOLECULE:

         0.910514   -0.413478    0.000034
         0.413478    0.910514   -0.000047
        -0.000012    0.000057    1.000000


          CARTESIAN COORDINATES 

    NO.       ATOM         X         Y         Z

     1         C       -0.5436   -0.5279    0.0001
     2         C        0.7337   -1.1079    0.0001
     3         C        1.8470   -0.2808    0.0001
     4         C        1.7429    1.1226   -0.0003
     5         C        0.4910    1.7022   -0.0006
     6         C       -0.6503    0.8708    0.0002
     7         O       -1.8273    1.5166    0.0007
     8         C       -1.7328   -1.3822   -0.0001
     9         O       -2.8585   -0.9193   -0.0004
    10         O        3.0502   -0.9222    0.0003
    11         H        0.8606   -2.1902    0.0000
    12         H        2.6410    1.7372   -0.0004
    13         H        0.3547    2.7830   -0.0008
    14         H       -2.5997    0.8571   -0.0002
    15         H       -1.5956   -2.4724    0.0001
    16         H        3.8054   -0.2882   -0.0012
  SCF CRITERION =    0.1000E-05


 ENERGY OF "REORIENTED" SYSTEM WITHOUT FIELD:      -99.51751 Kcal/mol


 APPLIED ELECTRIC FIELD MAGNITUDE:         0.10284 VOLTS PER ANGSTROM
    Step  1 of 36 done (+X)
    Step  2 of 36 done (-X)
    Step  3 of 36 done (+2X)
    Step  4 of 36 done (-2X)
    Step  5 of 36 done (+Y)
    Step  6 of 36 done (-Y)
    Step  7 of 36 done (+2Y)
    Step  8 of 36 done (-2Y)
    Step  9 of 36 done (+Y+X)
    Step 10 of 36 done (+Y-X)
    Step 11 of 36 done (-Y-X)
    Step 12 of 36 done (-Y+X)
    Step 13 of 36 done (+2Y+2X)
    Step 14 of 36 done (+2Y-2X)
    Step 15 of 36 done (-2Y-2X)
    Step 16 of 36 done (-2Y+2X)
    Step 17 of 36 done (+Z)
    Step 18 of 36 done (-Z)
    Step 19 of 36 done (+2Z)
    Step 20 of 36 done (-2Z)
    Step 21 of 36 done (+Z+X)
    Step 22 of 36 done (+Z-X)
    Step 23 of 36 done (-Z-X)
    Step 24 of 36 done (-Z+X)
    Step 25 of 36 done (+2Z+2X)
    Step 26 of 36 done (+2Z-2X)
    Step 27 of 36 done (-2Z-2X)
    Step 28 of 36 done (-2Z+2X)
    Step 29 of 36 done (+Z+Y)
    Step 30 of 36 done (+Z-Y)
    Step 31 of 36 done (-Z-Y)
    Step 32 of 36 done (-Z+Y)
    Step 33 of 36 done (+2Z+2Y)
    Step 34 of 36 done (+2Z-2Y)
    Step 35 of 36 done (-2Z-2Y)
    Step 36 of 36 done (-2Z+2Y)


 ****************************** DIPOLE ******************************


                     H.o.F.         Dipole

     X             -1.180047      -1.179981
     Y              0.015996       0.016108
     X              0.001380       0.001317


 MAGNITUDE:         1.180156       1.180092  (A.U.)
                    2.999657       2.999493  (DEBYE)


 ****************************** POLARIZABILITY ********************



 Polarizability Tensor from Heat of Formation:


                     1          2          3
 ------------------------------------------
          1 116.311861
          2   0.007311 103.184162
          3  -0.003507  -0.006130  67.583214




    ROOT NO.    1           2           3

            67.58321   103.18416   116.31187
  
         1   0.00007    -0.00056    -1.00000
         2   0.00017     1.00000    -0.00056
         3   1.00000    -0.00017     0.00007

 Polarizability Tensor from Dipole Moment:


                     1          2          3
 ------------------------------------------
          1 116.309817
          2  -0.039349 103.082169
          3  -0.037853  -0.135404  67.571404




    ROOT NO.    1           2           3

            67.57086   103.08257   116.30996
  
         1   0.00078     0.00296    -1.00000
         2   0.00381     0.99999     0.00297
         3   0.99999    -0.00382     0.00077


 Average Polarizability from:     H.o.F         Dipole
                               95.693079      95.654463  A.U.
                               14.179800      14.174078  ANG.**3
                            2.835884D-23   2.834739D-23  ESU

 **********************
 *                    *
 * JOB ENDED NORMALLY *
 *                    *
 **********************



 TOTAL JOB TIME:             0.36 SECONDS

 == MOPAC DONE ==
