 *******************************************************************************
 ** Site#: 32691        For non-commercial use only    Version 19.179W 32BITS **
 *******************************************************************************
 ** Cite this program as: MOPAC2016, Version: 19.179W, James J. P. Stewart,   **
 ** Stewart Computational Chemistry, web: HTTP://OpenMOPAC.net. Days left: 242**
 *******************************************************************************
 **                                                                           **
 **                                MOPAC2016                                  **
 **                                                                           **
 *******************************************************************************

                              PM7 CALCULATION RESULTS

 *******************************************************************************
 *  CALCULATION DONE:                                Tue Oct 29 11:53:49 2019  *
 *  STATIC     - CALCULATE STATIC FIELD POLARIZABILITIES
 *  T=         - A TIME OF 172800.0 SECONDS REQUESTED
 *  DUMP=N     - RESTART FILE WRITTEN EVERY  7200.000 SECONDS
 *  RELSCF     - DEFAULT SCF CRITERION MULTIPLIED BY 0.0100
 *              (DEFAULT SCF CRITERION = 0.00010)
 *******************************************************************************
STATIC RELSCF=0.01
 2,6-dimethoxybenzaldehyde.mop

  ATOM    CHEMICAL      BOND LENGTH      BOND ANGLE     TWIST ANGLE 
 NUMBER    SYMBOL       (ANGSTROMS)      (DEGREES)       (DEGREES) 
   (I)                     NA:I           NB:NA:I       NC:NB:NA:I       NA    NB    NC 
     1       C          0.00000000       0.0000000       0.0000000        0     0     0
     2       C          1.33658400  *    0.0000000       0.0000000        1     0     0
     3       C          1.33640500  *  119.3242730  *    0.0000000        2     1     0
     4       C          1.34727200  *  121.8103920  *    0.0024980  *     3     2     1
     5       C          1.36081000  *  117.3912280  *   -0.0059760  *     4     3     2
     6       C          1.34789200  *  122.0943650  *    0.0033080  *     1     2     3
     7       C          1.36883700  *  117.7228410  * -179.9962740  *     5     4     3
     8       O          1.21204600  *  129.2272690  *  179.9932370  *     7     5     4
     9       O          1.37851600  *  122.2067160  * -179.9963400  *     4     3     2
    10       C          1.40829400  *  120.1363430  *    0.0440390  *     9     4     3
    11       O          1.37675600  *  121.9637520  * -179.9960780  *     6     1     2
    12       C          1.40895500  *  120.1816510  *    0.0411700  *    11     6     1
    13       H          1.10101900  *  116.0169440  * -179.9987240  *     1     2     3
    14       H          1.10346800  *  120.3539150  * -179.9970220  *     2     1     6
    15       H          1.10097200  *  116.2672830  * -179.9995440  *     3     2     1
    16       H          1.11499700  *  116.3447650  *   -0.0060670  *     7     5     4
    17       H          1.11319200  *  107.6303060  *  179.9777410  *    10     9     4
    18       H          1.11278100  *  110.4453950  *  -62.4019510  *    10     9     4
    19       H          1.11278300  *  110.4441050  *   62.3565550  *    10     9     4
    20       H          1.11326600  *  107.5808330  *  179.9788920  *    12    11     6
    21       H          1.11288300  *  110.5268770  *  -62.4623360  *    12    11     6
    22       H          1.11288700  *  110.5255890  *   62.4193680  *    12    11     6
 


          CARTESIAN COORDINATES 

    NO.       ATOM           X           Y           Z

     1         C          0.0000      0.0000      0.0000
     2         C          1.3366      0.0000      0.0000
     3         C          1.9911      1.1652      0.0000
     4         C          1.3407      2.3450      0.0000
     5         C         -0.0197      2.3100     -0.0000
     6         C         -0.7162      1.1419     -0.0001
     7         C         -0.6874      3.5050     -0.0001
     8         O         -1.8809      3.7161     -0.0002
     9         O          2.0075      3.5516     -0.0000
    10         C          3.4155      3.5813     -0.0011
    11         O         -2.0929      1.1388      0.0000
    12         C         -2.7985     -0.0808      0.0010
    13         H         -0.4829     -0.9894      0.0000
    14         H          1.8942     -0.9522      0.0000
    15         H          3.0905      1.1064     -0.0000
    16         H         -0.0565      4.4243      0.0001
    17         H          3.7302      4.6490     -0.0014
    18         H          3.8150      3.1062      0.9225
    19         H          3.8136      3.1061     -0.9252
    20         H         -3.8855      0.1596      0.0013
    21         H         -2.5769     -0.6606     -0.9226
    22         H         -2.5761     -0.6595      0.9253

 General Reference for PM7:
 "Optimization of Parameters for Semiempirical Methods VI: More Modifications to the 
 NDDO Approximations and Re-optimization of Parameters", J. J. P. Stewart, J. Mol. Mod., 1:32, 19 (2013)
 http://www.springerlink.com/openurl.asp?genre=article&id=doi:10.1007/s00894-012-1667-x

           Empirical Formula: C9 H10 O3  =    22 atoms



      MOLECULAR POINT GROUP   :   Cs  


      RHF CALCULATION, NO. OF DOUBLY OCCUPIED LEVELS = 32


          Geometry optimization using EF
  SCF CRITERION =    0.1000E-05

          DIAGONAL MATRIX USED AS START HESSIAN

 CYCLE:     1 TIME:   0.031 TIME LEFT:  2.00D  GRAD.:   468.274 HEAT: -56.64324
 CYCLE:     2 TIME:   0.125 TIME LEFT:  2.00D  GRAD.:   404.096 HEAT: -61.63790
 CYCLE:     3 TIME:   0.055 TIME LEFT:  2.00D  GRAD.:   180.943 HEAT: -74.18501
 CYCLE:     4 TIME:   0.016 TIME LEFT:  2.00D  GRAD.:    58.398 HEAT: -82.48963
 CYCLE:     5 TIME:   0.016 TIME LEFT:  2.00D  GRAD.:    63.819 HEAT: -84.10847
 CYCLE:     6 TIME:   0.016 TIME LEFT:  2.00D  GRAD.:    60.449 HEAT: -84.49282
 CYCLE:     7 TIME:   0.016 TIME LEFT:  2.00D  GRAD.:    22.830 HEAT: -85.37346
 CYCLE:     8 TIME:   0.016 TIME LEFT:  2.00D  GRAD.:    24.641 HEAT: -85.44692
 CYCLE:     9 TIME:   0.016 TIME LEFT:  2.00D  GRAD.:    37.737 HEAT: -85.48246
 CYCLE:    10 TIME:   0.016 TIME LEFT:  2.00D  GRAD.:    20.911 HEAT: -85.59082
 CYCLE:    11 TIME:   0.016 TIME LEFT:  2.00D  GRAD.:     3.998 HEAT: -85.61995
 CYCLE:    12 TIME:   0.016 TIME LEFT:  2.00D  GRAD.:     1.721 HEAT: -85.62583
 CYCLE:    13 TIME:   0.016 TIME LEFT:  2.00D  GRAD.:     1.574 HEAT: -85.62868
 CYCLE:    14 TIME:   0.016 TIME LEFT:  2.00D  GRAD.:     0.685 HEAT: -85.62923

     GRADIENT =  0.68507 IS LESS THAN CUTOFF =  1.00000



 -------------------------------------------------------------------------------
 STATIC RELSCF=0.01
 2,6-dimethoxybenzaldehyde.mop



     GEOMETRY OPTIMISED USING EIGENVECTOR FOLLOWING (EF).     
     SCF FIELD WAS ACHIEVED                                   


                              PM7 CALCULATION
                                                       MOPAC2016 (Version: 19.179W)
                                                       Tue Oct 29 11:53:49 2019
                                                       No. of days remaining = 242




          FINAL HEAT OF FORMATION =        -85.62923 KCAL/MOL =    -358.27268 KJ/MOL


          TOTAL ENERGY            =      -2125.31309 EV
          ELECTRONIC ENERGY       =     -11037.81161 EV  POINT GROUP:     Cs  
          CORE-CORE REPULSION     =       8912.49852 EV
          COSMO AREA              =        196.41 SQUARE ANGSTROMS
          COSMO VOLUME            =        197.69 CUBIC ANGSTROMS

          GRADIENT NORM           =          0.68507 = 0.14606 PER ATOM
          IONIZATION POTENTIAL    =          9.136793 EV
          HOMO LUMO ENERGIES (EV) =         -9.137 -0.346
          NO. OF FILLED LEVELS    =         32
          MOLECULAR WEIGHT        =        166.1762

          MOLECULAR DIMENSIONS (Angstroms)

            Atom       Atom       Distance
            H    20    H    17     8.52310
            H    14    O     8     6.07286
            H    21    H    22     1.81105


          SCF CALCULATIONS        =         17
 
          WALL-CLOCK TIME         =          0.414 SECONDS
          COMPUTATION TIME        =          0.655 SECONDS




  ATOM    CHEMICAL      BOND LENGTH      BOND ANGLE     TWIST ANGLE 
 NUMBER    SYMBOL       (ANGSTROMS)      (DEGREES)       (DEGREES) 
   (I)                     NA:I           NB:NA:I       NC:NB:NA:I       NA    NB    NC 
     1       C          0.00000000       0.0000000       0.0000000        0     0     0
     2       C          1.38785253  *    0.0000000       0.0000000        1     0     0
     3       C          1.39440241  *  121.2799717  *    0.0000000        2     1     0
     4       C          1.39527781  *  118.5657559  *    0.0158170  *     3     2     1
     5       C          1.40854738  *  122.4119944  *   -0.0069853  *     4     3     2
     6       C          1.40423396  *  119.2401849  *   -0.0193267  *     1     2     3
     7       C          1.46781160  *  120.2107455  * -179.9976227  *     5     4     3
     8       O          1.20878812  *  123.4899889  *  179.9875840  *     7     5     4
     9       O          1.35430675  *  124.6634879  *  179.9872566  *     4     3     2
    10       C          1.42237786  *  117.8137026  *    0.0818707  *     9     4     3
    11       O          1.34521379  *  124.6509882  * -179.9966557  *     6     1     2
    12       C          1.42492125  *  117.5675230  *   -0.0254406  *    11     6     1
    13       H          1.08319803  *  119.8200242  *  179.9897513  *     1     2     3
    14       H          1.09244052  *  119.5400771  *  179.9916084  *     2     1     6
    15       H          1.08203977  *  119.8380847  * -179.9926984  *     3     2     1
    16       H          1.10123537  *  117.0595783  *   -0.0109924  *     7     5     4
    17       H          1.09936481  *  101.9003028  *  179.9937051  *    10     9     4
    18       H          1.09425932  *  110.8736374  *  -62.3019645  *    10     9     4
    19       H          1.09424817  *  110.8635282  *   62.2958306  *    10     9     4
    20       H          1.10080681  *  101.3873770  *  179.9668643  *    12    11     6
    21       H          1.09341829  *  111.2018226  *  -62.7017248  *    12    11     6
    22       H          1.09342789  *  111.2169388  *   62.6263088  *    12    11     6

                             CARTESIAN COORDINATES

   1    C        0.000000000     0.000000000     0.000000000
   2    C        1.387852535     0.000000000     0.000000000
   3    C        2.111854705     1.191712607     0.000000000
   4    C        1.410964828     2.398175793     0.000338290
   5    C        0.003510869     2.453664792     0.000533333
   6    C       -0.685928649     1.225305976     0.000413314
   7    C       -0.684522086     3.750230040     0.000835748
   8    O       -1.887670181     3.866863548     0.000795308
   9    O        1.987220760     3.623767813     0.000625757
  10    C        3.408097496     3.689072356    -0.001217203
  11    O       -2.025148439     1.352154266     0.000520694
  12    C       -2.800764078     0.156821609    -0.000369789
  13    H       -0.538649688    -0.939773620    -0.000168101
  14    H        1.926460924    -0.950435301    -0.000181394
  15    H        3.193551855     1.164485224    -0.000119612
  16    H       -0.053077824     4.652448101     0.001087621
  17    H        3.585169170     4.774083081    -0.000635655
  18    H        3.820608504     3.231450516     0.903117019
  19    H        3.818009799     3.232880762    -0.907440237
  20    H       -3.824332205     0.561893267     0.000567729
  21    H       -2.623824087    -0.428706019    -0.906688275
  22    H       -2.622992845    -0.430919288     0.904363642


           Empirical Formula: C9 H10 O3  =    22 atoms



      MOLECULAR POINT GROUP   :   Cs  


                  EIGENVALUES  
 -31.37804 -31.11970 -30.26973 -30.07610 -26.96247 -25.65623 -25.10161 -24.36151
 -22.85520 -20.87624 -19.93288 -18.56074 -17.22711 -16.57585 -16.36562 -16.27771
 -15.94375 -15.14656 -15.10951 -14.24090 -14.20767 -13.76431 -13.65065 -13.10584
 -12.80874 -12.67561 -12.42784 -12.12830 -11.49583  -9.62704  -9.59966  -9.13679
  -0.34585   0.26365   1.23000   1.46126   1.78538   2.48218   3.52175   3.79943
   4.00199   4.14080   4.52737   4.69359   4.86441   4.96926   5.03849   5.14909
   5.24961   5.35966   5.52645   5.58836   5.64347   5.76935   5.90107   5.92771
   6.07259   6.25056


              NET ATOMIC CHARGES AND DIPOLE CONTRIBUTIONS

  ATOM NO.   TYPE          CHARGE      No. of ELECS.   s-Pop       p-Pop       
    1          C          -0.396491        4.3965     1.06833     3.32816
    2          C           0.032862        3.9671     1.08806     2.87907
    3          C          -0.399643        4.3996     1.06612     3.33352
    4          C           0.352048        3.6480     1.09067     2.55728
    5          C          -0.386243        4.3862     1.06226     3.32399
    6          C           0.350681        3.6493     1.09417     2.55515
    7          C           0.376011        3.6240     1.12359     2.50040
    8          O          -0.440450        6.4404     1.87881     4.56164
    9          O          -0.319967        6.3200     1.86311     4.45686
   10          C          -0.192901        4.1929     1.08872     3.10418
   11          O          -0.220963        6.2210     1.86991     4.35105
   12          C          -0.229652        4.2297     1.09036     3.13929
   13          H           0.170904        0.8291     0.82910
   14          H           0.146082        0.8539     0.85392
   15          H           0.169104        0.8309     0.83090
   16          H           0.119985        0.8800     0.88002
   17          H           0.155667        0.8443     0.84433
   18          H           0.136901        0.8631     0.86310
   19          H           0.136911        0.8631     0.86309
   20          H           0.164452        0.8355     0.83555
   21          H           0.137357        0.8626     0.86264
   22          H           0.137348        0.8627     0.86265
 DIPOLE           X         Y         Z       TOTAL
 POINT-CHG.     3.868    -2.837    -0.004     4.797
 HYBRID        -0.271     0.091     0.001     0.286
 SUM            3.597    -2.747    -0.003     4.526


          ATOMIC ORBITAL ELECTRON POPULATIONS

     Atom    s        px        py        pz   
    1  C   1.06833   1.02929   1.06663   1.23224
    2  C   1.08806   0.98940   1.04110   0.84857
    3  C   1.06612   1.10034   0.99363   1.23955
    4  C   1.09067   0.91395   0.82985   0.81348
    5  C   1.06226   0.98853   1.04077   1.29469
    6  C   1.09417   0.81250   0.95036   0.79229
    7  C   1.12359   0.86668   0.95070   0.68302
    8  O   1.87881   1.27099   1.91040   1.38024
    9  O   1.86311   1.26553   1.32487   1.86646
   10  C   1.08872   0.80218   1.15480   1.14720
   11  O   1.86991   1.20827   1.31039   1.83239
   12  C   1.09036   1.03683   0.95584   1.14662
   13  H   0.82910
   14  H   0.85392
   15  H   0.83090
   16  H   0.88002
   17  H   0.84433
   18  H   0.86310
   19  H   0.86309
   20  H   0.83555
   21  H   0.86264
   22  H   0.86265
 ******************** FINITE-FIELD POLARIZABILITIES ********************

    THE F-F METHOD IS PERFORMED USING BOTH AN ENERGY
    AND DIPOLE MOMENT EXPANSION.  THESE RESULTS ARE
    LISTED BELOW AS "H.o.F." AND "Dipole", RESPECTIVELY.

          MOLECULAR WEIGHT =  166.18



          ROTATIONAL CONSTANTS IN CM(-1)

          A =    0.05074084   B =    0.02519131   C =    0.01694567



           PRINCIPAL MOMENTS OF INERTIA IN UNITS OF 10**(-40)*GRAM-CM**2

          A =      551.6814   B =     1111.2074   C =     1651.9127


 ROTATION MATRIX FOR ORIENTATION OF MOLECULE:

         0.917734   -0.397196    0.000161
         0.397196    0.917734   -0.000143
        -0.000091    0.000195    1.000000


          CARTESIAN COORDINATES 

    NO.       ATOM         X         Y         Z

     1         C       -0.9431   -1.7885    0.0001
     2         C        0.3305   -2.3398    0.0003
     3         C        1.4683   -1.5336    0.0002
     4         C        1.3043   -0.1480    0.0003
     5         C        0.0347    0.4619    0.0003
     6         C       -1.0859   -0.3915    0.0002
     7         C       -0.0818    1.9251    0.0003
     8         O       -1.1396    2.5100    0.0000
     9         O        2.3200    0.7478    0.0005
    10         C        3.6499    0.2434   -0.0011
    11         O       -2.2646    0.2568    0.0001
    12         C       -3.4512   -0.5321   -0.0008
    13         H       -1.8107   -2.4370   -0.0000
    14         H        0.4473   -3.4259    0.0003
    15         H        2.4502   -1.9883    0.0003
    16         H        0.8561    2.5023    0.0005
    17         H        4.2433    1.1688   -0.0007
    18         H        3.8466   -0.3402    0.9033
    19         H        3.8450   -0.3383   -0.9072
    20         H       -4.2297    0.2462   -0.0001
    21         H       -3.5213   -1.1399   -0.9070
    22         H       -3.5216   -1.1420    0.9041
  SCF CRITERION =    0.1000E-05


 ENERGY OF "REORIENTED" SYSTEM WITHOUT FIELD:      -85.62922 Kcal/mol


 APPLIED ELECTRIC FIELD MAGNITUDE:         0.10284 VOLTS PER ANGSTROM
    Step  1 of 36 done (+X)
    Step  2 of 36 done (-X)
    Step  3 of 36 done (+2X)
    Step  4 of 36 done (-2X)
    Step  5 of 36 done (+Y)
    Step  6 of 36 done (-Y)
    Step  7 of 36 done (+2Y)
    Step  8 of 36 done (-2Y)
    Step  9 of 36 done (+Y+X)
    Step 10 of 36 done (+Y-X)
    Step 11 of 36 done (-Y-X)
    Step 12 of 36 done (-Y+X)
    Step 13 of 36 done (+2Y+2X)
    Step 14 of 36 done (+2Y-2X)
    Step 15 of 36 done (-2Y-2X)
    Step 16 of 36 done (-2Y+2X)
    Step 17 of 36 done (+Z)
    Step 18 of 36 done (-Z)
    Step 19 of 36 done (+2Z)
    Step 20 of 36 done (-2Z)
    Step 21 of 36 done (+Z+X)
    Step 22 of 36 done (+Z-X)
    Step 23 of 36 done (-Z-X)
    Step 24 of 36 done (-Z+X)
    Step 25 of 36 done (+2Z+2X)
    Step 26 of 36 done (+2Z-2X)
    Step 27 of 36 done (-2Z-2X)
    Step 28 of 36 done (-2Z+2X)
    Step 29 of 36 done (+Z+Y)
    Step 30 of 36 done (+Z-Y)
    Step 31 of 36 done (-Z-Y)
    Step 32 of 36 done (-Z+Y)
    Step 33 of 36 done (+2Z+2Y)
    Step 34 of 36 done (+2Z-2Y)
    Step 35 of 36 done (-2Z-2Y)
    Step 36 of 36 done (-2Z+2Y)


 ****************************** DIPOLE ******************************


                     H.o.F.         Dipole

     X             -0.869355      -0.869127
     Y              1.553867       1.553678
     X              0.000986       0.000975


 MAGNITUDE:         1.780528       1.780252  (A.U.)
                    4.525651       4.524949  (DEBYE)


 ****************************** POLARIZABILITY ********************



 Polarizability Tensor from Heat of Formation:


                     1          2          3
 ------------------------------------------
          1 141.921265
          2  -6.147832 129.135749
          3   0.006396   0.001198  92.236440




    ROOT NO.    1           2           3

            92.23644   126.65928   144.39773
  
         1  -0.00014     0.37364    -0.92757
         2  -0.00006     0.92757     0.37364
         3   1.00000     0.00010    -0.00011

 Polarizability Tensor from Dipole Moment:


                     1          2          3
 ------------------------------------------
          1 141.882527
          2  -6.271397 129.124946
          3  -0.002411   0.011336  92.230883




    ROOT NO.    1           2           3

            92.23088   126.55838   144.44909
  
         1   0.00001     0.37876    -0.92550
         2  -0.00031     0.92550     0.37876
         3   1.00000     0.00028     0.00012


 Average Polarizability from:     H.o.F         Dipole
                              121.097818     121.079452  A.U.
                               17.944275      17.941553  ANG.**3
                            3.588758D-23   3.588214D-23  ESU

 **********************
 *                    *
 * JOB ENDED NORMALLY *
 *                    *
 **********************



 TOTAL JOB TIME:             0.59 SECONDS

 == MOPAC DONE ==
