 *******************************************************************************
 ** Site#: 32691        For non-commercial use only    Version 19.179W 32BITS **
 *******************************************************************************
 ** Cite this program as: MOPAC2016, Version: 19.179W, James J. P. Stewart,   **
 ** Stewart Computational Chemistry, web: HTTP://OpenMOPAC.net. Days left: 242**
 *******************************************************************************
 **                                                                           **
 **                                MOPAC2016                                  **
 **                                                                           **
 *******************************************************************************

                              PM7 CALCULATION RESULTS

 *******************************************************************************
 *  CALCULATION DONE:                                Tue Oct 29 11:42:32 2019  *
 *  STATIC     - CALCULATE STATIC FIELD POLARIZABILITIES
 *  T=         - A TIME OF 172800.0 SECONDS REQUESTED
 *  DUMP=N     - RESTART FILE WRITTEN EVERY  7200.000 SECONDS
 *  RELSCF     - DEFAULT SCF CRITERION MULTIPLIED BY 0.0100
 *              (DEFAULT SCF CRITERION = 0.00010)
 *******************************************************************************
STATIC RELSCF=0.01
 3,4-dimethoxybenzaldehyde.mop

  ATOM    CHEMICAL      BOND LENGTH      BOND ANGLE     TWIST ANGLE 
 NUMBER    SYMBOL       (ANGSTROMS)      (DEGREES)       (DEGREES) 
   (I)                     NA:I           NB:NA:I       NC:NB:NA:I       NA    NB    NC 
     1       C          0.00000000       0.0000000       0.0000000        0     0     0
     2       C          1.34967700  *    0.0000000       0.0000000        1     0     0
     3       C          1.34455300  *  122.9156610  *    0.0000000        2     1     0
     4       C          1.34195300  *  117.9614550  *    0.0007380  *     3     2     1
     5       C          1.34016200  *  119.8610050  *    0.0021720  *     4     3     2
     6       C          1.35584200  *  118.6388170  *   -0.0072220  *     1     2     3
     7       O          1.37745600  *  117.7459430  * -179.9986830  *     6     1     2
     8       O          1.37814800  *  124.0488730  * -179.9967570  *     1     2     3
     9       C          1.36131200  *  121.7548990  * -179.9988000  *     3     2     1
    10       O          1.21158400  *  125.9824970  *   -0.0006090  *     9     3     2
    11       C          1.40891600  *  119.5657020  *    0.0431470  *     8     1     2
    12       C          1.40895100  *  119.2946560  * -179.9496450  *     7     6     1
    13       H          1.09994100  *  118.9454770  *  179.9944860  *     2     1     6
    14       H          1.10363000  *  121.5158790  * -179.9989530  *     4     3     2
    15       H          1.10148000  *  116.4479340  *  179.9992710  *     5     4     3
    16       H          1.11614200  *  115.2077590  *  179.9995080  *     9     3     2
    17       H          1.11322700  *  107.6946050  *  179.9789310  *    11     8     1
    18       H          1.11288700  *  110.4435870  *  -62.3392650  *    11     8     1
    19       H          1.11288900  *  110.4423470  *   62.2958920  *    11     8     1
    20       H          1.11324700  *  107.7225070  *  179.9832280  *    12     7     6
    21       H          1.11287500  *  110.4189210  *  -62.2540860  *    12     7     6
    22       H          1.11287700  *  110.4174670  *   62.2191740  *    12     7     6
 


          CARTESIAN COORDINATES 

    NO.       ATOM           X           Y           Z

     1         C          0.0000      0.0000      0.0000
     2         C          1.3497      0.0000      0.0000
     3         C          2.0803      1.1287      0.0000
     4         C          1.4272      2.3010      0.0000
     5         C          0.0872      2.3183      0.0001
     6         C         -0.6498      1.1900      0.0001
     7         O         -2.0271      1.1685      0.0002
     8         O         -0.7716     -1.1419      0.0001
     9         C          3.4413      1.1011     -0.0000
    10         O          4.1332      0.1065     -0.0000
    11         C         -0.1455     -2.4040      0.0011
    12         C         -2.7356      2.3864     -0.0008
    13         H          1.8820     -0.9625     -0.0000
    14         H          1.9683      3.2629     -0.0000
    15         H         -0.3907      3.3107      0.0001
    16         H          3.9371      2.1012     -0.0000
    17         H         -0.9452     -3.1785      0.0013
    18         H          0.4615     -2.5375     -0.9221
    19         H          0.4610     -2.5363      0.9248
    20         H         -3.8226      2.1461     -0.0009
    21         H         -2.5111      2.9668      0.9218
    22         H         -2.5106      2.9657     -0.9239

 General Reference for PM7:
 "Optimization of Parameters for Semiempirical Methods VI: More Modifications to the 
 NDDO Approximations and Re-optimization of Parameters", J. J. P. Stewart, J. Mol. Mod., 1:32, 19 (2013)
 http://www.springerlink.com/openurl.asp?genre=article&id=doi:10.1007/s00894-012-1667-x

           Empirical Formula: C9 H10 O3  =    22 atoms



      MOLECULAR POINT GROUP   :   Cs  


      RHF CALCULATION, NO. OF DOUBLY OCCUPIED LEVELS = 32


          Geometry optimization using EF
  SCF CRITERION =    0.1000E-05

          DIAGONAL MATRIX USED AS START HESSIAN

 CYCLE:     1 TIME:   0.031 TIME LEFT:  2.00D  GRAD.:   459.556 HEAT: -55.43065
 CYCLE:     2 TIME:   0.062 TIME LEFT:  2.00D  GRAD.:   416.779 HEAT: -59.77317
 CYCLE:     3 TIME:   0.031 TIME LEFT:  2.00D  GRAD.:   171.374 HEAT: -72.22705
 CYCLE:     4 TIME:   0.031 TIME LEFT:  2.00D  GRAD.:    50.445 HEAT: -79.05021
 CYCLE:     5 TIME:   0.059 TIME LEFT:  2.00D  GRAD.:    48.706 HEAT: -79.88503
 CYCLE:     6 TIME:   0.035 TIME LEFT:  2.00D  GRAD.:    31.406 HEAT: -81.06666
 CYCLE:     7 TIME:   0.016 TIME LEFT:  2.00D  GRAD.:    28.784 HEAT: -81.51821
 CYCLE:     8 TIME:   0.016 TIME LEFT:  2.00D  GRAD.:    21.858 HEAT: -81.66882
 CYCLE:     9 TIME:   0.012 TIME LEFT:  2.00D  GRAD.:    10.208 HEAT: -81.70450
 CYCLE:    10 TIME:   0.035 TIME LEFT:  2.00D  GRAD.:    11.091 HEAT: -81.74012
 CYCLE:    11 TIME:   0.031 TIME LEFT:  2.00D  GRAD.:     7.134 HEAT: -81.75026
 CYCLE:    12 TIME:   0.016 TIME LEFT:  2.00D  GRAD.:     1.969 HEAT: -81.75573
 CYCLE:    13 TIME:   0.016 TIME LEFT:  2.00D  GRAD.:     0.745 HEAT: -81.75777

     GRADIENT =  0.74454 IS LESS THAN CUTOFF =  1.00000



 -------------------------------------------------------------------------------
 STATIC RELSCF=0.01
 3,4-dimethoxybenzaldehyde.mop



     GEOMETRY OPTIMISED USING EIGENVECTOR FOLLOWING (EF).     
     SCF FIELD WAS ACHIEVED                                   


                              PM7 CALCULATION
                                                       MOPAC2016 (Version: 19.179W)
                                                       Tue Oct 29 11:42:32 2019
                                                       No. of days remaining = 242




          FINAL HEAT OF FORMATION =        -81.75777 KCAL/MOL =    -342.07451 KJ/MOL


          TOTAL ENERGY            =      -2125.15162 EV
          ELECTRONIC ENERGY       =     -10885.23694 EV  POINT GROUP:     Cs  
          CORE-CORE REPULSION     =       8760.08532 EV
          COSMO AREA              =        199.78 SQUARE ANGSTROMS
          COSMO VOLUME            =        199.78 CUBIC ANGSTROMS

          GRADIENT NORM           =          0.74454 = 0.15874 PER ATOM
          IONIZATION POTENTIAL    =          8.740611 EV
          HOMO LUMO ENERGIES (EV) =         -8.741 -0.511
          NO. OF FILLED LEVELS    =         32
          MOLECULAR WEIGHT        =        166.1762

          MOLECULAR DIMENSIONS (Angstroms)

            Atom       Atom       Distance
            H    20    O    10     8.21906
            H    17    H    14     6.89779
            H    22    H    19     1.81156


          SCF CALCULATIONS        =         18
 
          WALL-CLOCK TIME         =          0.422 SECONDS
          COMPUTATION TIME        =          0.671 SECONDS




  ATOM    CHEMICAL      BOND LENGTH      BOND ANGLE     TWIST ANGLE 
 NUMBER    SYMBOL       (ANGSTROMS)      (DEGREES)       (DEGREES) 
   (I)                     NA:I           NB:NA:I       NC:NB:NA:I       NA    NB    NC 
     1       C          0.00000000       0.0000000       0.0000000        0     0     0
     2       C          1.38259955  *    0.0000000       0.0000000        1     0     0
     3       C          1.40351868  *  119.6632793  *    0.0000000        2     1     0
     4       C          1.38831438  *  120.6327909  *   -0.0129743  *     3     2     1
     5       C          1.39855697  *  120.2321272  *   -0.0018671  *     4     3     2
     6       C          1.42549874  *  119.7323164  *   -0.0009722  *     1     2     3
     7       O          1.35504468  *  113.7470090  * -179.9832031  *     6     1     2
     8       O          1.36001899  *  126.3304139  *  179.9992106  *     1     2     3
     9       C          1.47635213  *  118.8784079  *  179.9965204  *     3     2     1
    10       O          1.20906978  *  122.1572552  *    0.0015019  *     9     3     2
    11       C          1.42256678  *  116.2334150  *   -0.0110543  *     8     1     2
    12       C          1.42282040  *  116.8408084  * -179.9121443  *     7     6     1
    13       H          1.09238593  *  121.7749593  * -179.9947635  *     2     1     6
    14       H          1.08968273  *  120.5843474  * -179.9994835  *     4     3     2
    15       H          1.08599222  *  119.4014719  *  179.9995414  *     5     4     3
    16       H          1.09864168  *  117.6681973  * -179.9983995  *     9     3     2
    17       H          1.09920085  *  101.7597047  *  179.9680580  *    11     8     1
    18       H          1.09452838  *  111.0987487  *  -62.4664585  *    11     8     1
    19       H          1.09454088  *  111.1116948  *   62.3946726  *    11     8     1
    20       H          1.09982703  *  101.7473283  *  179.9938590  *    12     7     6
    21       H          1.09412670  *  111.0887391  *  -62.5197056  *    12     7     6
    22       H          1.09411303  *  111.0791725  *   62.5138131  *    12     7     6

                             CARTESIAN COORDINATES

   1    C        0.000000000     0.000000000     0.000000000
   2    C        1.382599551     0.000000000     0.000000000
   3    C        2.077203561     1.219585978     0.000000000
   4    C        1.389268485     2.425472402    -0.000270505
   5    C       -0.009229024     2.438365194    -0.000586507
   6    C       -0.706973994     1.237834577     0.000021003
   7    O       -2.054631828     1.096539441     0.000382218
   8    O       -0.805730875    -1.095650221    -0.000015095
   9    C        3.553417170     1.199362670     0.000078511
  10    O        4.182856678     0.167056690     0.000115923
  11    C       -0.150268775    -2.358213333    -0.000278682
  12    C       -2.825930712     2.292161584    -0.001521647
  13    H        1.957832839    -0.928662305    -0.000100631
  14    H        1.929354892     3.371894681    -0.000278753
  15    H       -0.533626383     3.389357556    -0.000788181
  16    H        4.076852646     2.165296857     0.000104282
  17    H       -1.002138174    -3.052879166     0.000364686
  18    H        0.450084515    -2.490285991    -0.905886270
  19    H        0.451449019    -2.490220589     0.904447534
  20    H       -3.852164635     1.896607499    -0.000885874
  21    H       -2.643412864     2.879835755     0.903154836
  22    H       -2.643390480     2.876757212    -0.908169505


           Empirical Formula: C9 H10 O3  =    22 atoms



      MOLECULAR POINT GROUP   :   Cs  


                  EIGENVALUES  
 -31.30099 -30.92020 -30.55796 -30.15234 -26.62515 -25.96594 -25.13498 -24.59709
 -22.38313 -21.12666 -20.09864 -18.54024 -17.31088 -16.85311 -16.29772 -15.72910
 -15.67424 -15.20346 -15.03940 -14.82590 -14.43996 -13.73339 -13.66630 -13.48498
 -12.92915 -12.35723 -12.20541 -11.86412 -11.73956 -10.14298  -9.80242  -8.74061
  -0.51116   0.02263   1.19966   1.38768   1.93741   2.40482   3.43946   3.66140
   4.03357   4.27472   4.44208   4.63145   4.80606   4.91930   5.08898   5.14196
   5.24609   5.36020   5.38021   5.45008   5.55783   5.67147   5.83735   5.93383
   5.96636   6.16637


              NET ATOMIC CHARGES AND DIPOLE CONTRIBUTIONS

  ATOM NO.   TYPE          CHARGE      No. of ELECS.   s-Pop       p-Pop       
    1          C           0.122011        3.8780     1.07883     2.79916
    2          C          -0.177045        4.1770     1.08229     3.09476
    3          C          -0.179179        4.1792     1.07030     3.10888
    4          C          -0.096092        4.0961     1.08144     3.01465
    5          C          -0.278401        4.2784     1.07320     3.20520
    6          C           0.192776        3.8072     1.08739     2.71983
    7          O          -0.265754        6.2658     1.86919     4.39656
    8          O          -0.274739        6.2747     1.87077     4.40397
    9          C           0.349403        3.6506     1.13385     2.51674
   10          O          -0.441584        6.4416     1.87911     4.56247
   11          C          -0.214177        4.2142     1.08843     3.12575
   12          C          -0.216710        4.2167     1.08873     3.12798
   13          H           0.186690        0.8133     0.81331
   14          H           0.152694        0.8473     0.84731
   15          H           0.166524        0.8335     0.83348
   16          H           0.108782        0.8912     0.89122
   17          H           0.156370        0.8436     0.84363
   18          H           0.138058        0.8619     0.86194
   19          H           0.138070        0.8619     0.86193
   20          H           0.159099        0.8409     0.84090
   21          H           0.136597        0.8634     0.86340
   22          H           0.136607        0.8634     0.86339
 DIPOLE           X         Y         Z       TOTAL
 POINT-CHG.    -2.067     2.574    -0.003     3.301
 HYBRID        -0.433    -0.373     0.000     0.571
 SUM           -2.500     2.202    -0.003     3.331


          ATOMIC ORBITAL ELECTRON POPULATIONS

     Atom    s        px        py        pz   
    1  C   1.07883   0.93183   0.85835   1.00898
    2  C   1.08229   0.99180   1.07590   1.02706
    3  C   1.07030   1.01822   0.98861   1.10205
    4  C   1.08144   0.99789   1.04831   0.96845
    5  C   1.07320   1.02009   1.05687   1.12823
    6  C   1.08739   0.81923   0.96341   0.93719
    7  O   1.86919   1.20797   1.31843   1.87016
    8  O   1.87077   1.32747   1.18948   1.88702
    9  C   1.13385   0.91013   0.92749   0.67912
   10  O   1.87911   1.73267   1.45736   1.37244
   11  C   1.08843   1.11559   0.86220   1.14795
   12  C   1.08873   1.03195   0.95017   1.14586
   13  H   0.81331
   14  H   0.84731
   15  H   0.83348
   16  H   0.89122
   17  H   0.84363
   18  H   0.86194
   19  H   0.86193
   20  H   0.84090
   21  H   0.86340
   22  H   0.86339
 ******************** FINITE-FIELD POLARIZABILITIES ********************

    THE F-F METHOD IS PERFORMED USING BOTH AN ENERGY
    AND DIPOLE MOMENT EXPANSION.  THESE RESULTS ARE
    LISTED BELOW AS "H.o.F." AND "Dipole", RESPECTIVELY.

          MOLECULAR WEIGHT =  166.18



          ROTATIONAL CONSTANTS IN CM(-1)

          A =    0.04681760   B =    0.02288706   C =    0.01546547



           PRINCIPAL MOMENTS OF INERTIA IN UNITS OF 10**(-40)*GRAM-CM**2

          A =      597.9113   B =     1223.0831   C =     1810.0181


 ROTATION MATRIX FOR ORIENTATION OF MOLECULE:

         0.995835    0.091170   -0.000101
        -0.091170    0.995835    0.000113
         0.000111   -0.000103    1.000000


          CARTESIAN COORDINATES 

    NO.       ATOM         X         Y         Z

     1         C       -0.3935   -0.7123    0.0002
     2         C        0.9833   -0.5862    0.0000
     3         C        1.5639    0.6916    0.0001
     4         C        0.7689    1.8297    0.0000
     5         C       -0.6250    1.7151   -0.0002
     6         C       -1.2104    0.4559    0.0004
     7         O       -2.5395    0.1924    0.0009
     8         O       -1.0960   -1.8768    0.0001
     9         C        3.0358    0.8060    0.0000
    10         O        3.7567   -0.1646   -0.0001
    11         C       -0.3281   -3.0744   -0.0004
    12         C       -3.4166    1.3127   -0.0008
    13         H        1.6409   -1.4586   -0.0002
    14         H        1.2204    2.8215    0.0001
    15         H       -1.2339    2.6143   -0.0002
    16         H        3.4690    1.8157    0.0001
    17         H       -1.1131   -3.8438    0.0003
    18         H        0.2817   -3.1511   -0.9061
    19         H        0.2832   -3.1511    0.9043
    20         H       -4.4025    0.8252   -0.0001
    21         H       -3.2884    1.9144    0.9039
    22         H       -3.2883    1.9116   -0.9074
  SCF CRITERION =    0.1000E-05


 ENERGY OF "REORIENTED" SYSTEM WITHOUT FIELD:      -81.75777 Kcal/mol


 APPLIED ELECTRIC FIELD MAGNITUDE:         0.10284 VOLTS PER ANGSTROM
    Step  1 of 36 done (+X)
    Step  2 of 36 done (-X)
    Step  3 of 36 done (+2X)
    Step  4 of 36 done (-2X)
    Step  5 of 36 done (+Y)
    Step  6 of 36 done (-Y)
    Step  7 of 36 done (+2Y)
    Step  8 of 36 done (-2Y)
    Step  9 of 36 done (+Y+X)
    Step 10 of 36 done (+Y-X)
    Step 11 of 36 done (-Y-X)
    Step 12 of 36 done (-Y+X)
    Step 13 of 36 done (+2Y+2X)
    Step 14 of 36 done (+2Y-2X)
    Step 15 of 36 done (-2Y-2X)
    Step 16 of 36 done (-2Y+2X)
    Step 17 of 36 done (+Z)
    Step 18 of 36 done (-Z)
    Step 19 of 36 done (+2Z)
    Step 20 of 36 done (-2Z)
    Step 21 of 36 done (+Z+X)
    Step 22 of 36 done (+Z-X)
    Step 23 of 36 done (-Z-X)
    Step 24 of 36 done (-Z+X)
    Step 25 of 36 done (+2Z+2X)
    Step 26 of 36 done (+2Z-2X)
    Step 27 of 36 done (-2Z-2X)
    Step 28 of 36 done (-2Z+2X)
    Step 29 of 36 done (+Z+Y)
    Step 30 of 36 done (+Z-Y)
    Step 31 of 36 done (-Z-Y)
    Step 32 of 36 done (-Z+Y)
    Step 33 of 36 done (+2Z+2Y)
    Step 34 of 36 done (+2Z-2Y)
    Step 35 of 36 done (-2Z-2Y)
    Step 36 of 36 done (-2Z+2Y)


 ****************************** DIPOLE ******************************


                     H.o.F.         Dipole

     X              1.058278       1.058157
     Y             -0.772932      -0.772885
     X              0.000922       0.000847


 MAGNITUDE:         1.310487       1.310361  (A.U.)
                    3.330926       3.330606  (DEBYE)


 ****************************** POLARIZABILITY ********************



 Polarizability Tensor from Heat of Formation:


                     1          2          3
 ------------------------------------------
          1 145.211185
          2  -6.415958 131.164870
          3  -0.007070  -0.003736  92.216788




    ROOT NO.    1           2           3

            92.21679   128.67544   147.70061
  
         1   0.00015     0.36173    -0.93228
         2   0.00012     0.93228     0.36173
         3   1.00000    -0.00017     0.00009

 Polarizability Tensor from Dipole Moment:


                     1          2          3
 ------------------------------------------
          1 145.230320
          2  -6.396002 131.190819
          3   0.003287  -0.074710  92.201415




    ROOT NO.    1           2           3

            92.20127   128.71408   147.70720
  
         1   0.00017     0.36112    -0.93252
         2   0.00194     0.93252     0.36112
         3   1.00000    -0.00188    -0.00054


 Average Polarizability from:     H.o.F         Dipole
                              122.864281     122.874185  A.U.
                               18.206029      18.207497  ANG.**3
                            3.641108D-23   3.641401D-23  ESU

 **********************
 *                    *
 * JOB ENDED NORMALLY *
 *                    *
 **********************



 TOTAL JOB TIME:             0.56 SECONDS

 == MOPAC DONE ==
