 *******************************************************************************
 ** Site#: 32691        For non-commercial use only    Version 19.179W 32BITS **
 *******************************************************************************
 ** Cite this program as: MOPAC2016, Version: 19.179W, James J. P. Stewart,   **
 ** Stewart Computational Chemistry, web: HTTP://OpenMOPAC.net. Days left: 242**
 *******************************************************************************
 **                                                                           **
 **                                MOPAC2016                                  **
 **                                                                           **
 *******************************************************************************

                              PM7 CALCULATION RESULTS

 *******************************************************************************
 *  CALCULATION DONE:                                Tue Oct 29 11:41:17 2019  *
 *  STATIC     - CALCULATE STATIC FIELD POLARIZABILITIES
 *  T=         - A TIME OF 172800.0 SECONDS REQUESTED
 *  DUMP=N     - RESTART FILE WRITTEN EVERY  7200.000 SECONDS
 *  RELSCF     - DEFAULT SCF CRITERION MULTIPLIED BY 0.0100
 *              (DEFAULT SCF CRITERION = 0.00010)
 *******************************************************************************
STATIC RELSCF=0.01
 3-ethoxy-4-hydroxybenzaldehyde.mop

  ATOM    CHEMICAL      BOND LENGTH      BOND ANGLE     TWIST ANGLE 
 NUMBER    SYMBOL       (ANGSTROMS)      (DEGREES)       (DEGREES) 
   (I)                     NA:I           NB:NA:I       NC:NB:NA:I       NA    NB    NC 
     1       C          0.00000000       0.0000000       0.0000000        0     0     0
     2       C          1.33975300  *    0.0000000       0.0000000        1     0     0
     3       C          1.34283500  *  121.5417740  *    0.0000000        2     1     0
     4       C          1.35022700  *  120.0032860  *   -0.0025420  *     3     2     1
     5       C          1.34947400  *  117.5849880  *    0.0055000  *     4     3     2
     6       C          1.34333000  *  119.5748520  *   -0.0007200  *     1     2     3
     7       O          1.37555400  *  117.2596310  *  179.9963870  *     4     3     2
     8       C          1.40302200  *  119.7401200  * -179.9446050  *     7     4     3
     9       C          1.52678000  *  108.5862930  *  179.9742920  *     8     7     4
    10       O          1.36210800  *  120.2575170  *  179.9985770  *     3     2     1
    11       C          1.36155600  *  120.8464690  * -179.9986150  *     6     1     2
    12       O          1.21169900  *  125.9117690  *   -0.0002090  *    11     6     1
    13       H          1.10251000  *  118.2387240  * -179.9993270  *     1     2     3
    14       H          1.10333500  *  119.3617100  *  179.9983710  *     2     1     6
    15       H          1.10108100  *  119.0397080  *  179.9957540  *     5     4     3
    16       H          1.11518300  *  109.5072270  *  -60.8520670  *     8     7     4
    17       H          1.11518400  *  109.5070050  *   60.7997720  *     8     7     4
    18       H          1.11448600  *  110.9626780  *  179.9997850  *     9     8     7
    19       H          1.11434200  *  111.1528880  *  -60.1060270  *     9     8     7
    20       H          1.11434200  *  111.1525160  *   60.1052220  *     9     8     7
    21       H          0.97102300  *  109.1560020  *  179.9990030  *    10     3     2
    22       H          1.11608100  *  115.3959870  *  179.9998170  *    11     6     1
 


          CARTESIAN COORDINATES 

    NO.       ATOM           X           Y           Z

     1         C          0.0000      0.0000      0.0000
     2         C          1.3398      0.0000      0.0000
     3         C          2.0422      1.1444      0.0000
     4         C          1.3989      2.3316     -0.0001
     5         C          0.0496      2.3111      0.0000
     6         C         -0.6630      1.1683      0.0000
     7         O          2.1737      3.4681      0.0000
     8         C          1.5593      4.7294      0.0012
     9         C          2.6471      5.8007      0.0016
    10         O          3.4040      1.1139      0.0000
    11         C         -2.0242      1.1985      0.0000
    12         O         -2.7565      0.2332      0.0001
    13         H         -0.5216     -0.9713      0.0000
    14         H          1.8807     -0.9616      0.0000
    15         H         -0.4995      3.2655      0.0000
    16         H          0.9353      4.8404     -0.9164
    17         H          0.9358      4.8391      0.9192
    18         H          2.2010      6.8220      0.0025
    19         H          3.2973      5.7131      0.9024
    20         H          3.2968      5.7144     -0.8996
    21         H          3.7431      2.0238      0.0000
    22         H         -2.4804      2.2171      0.0001

 General Reference for PM7:
 "Optimization of Parameters for Semiempirical Methods VI: More Modifications to the 
 NDDO Approximations and Re-optimization of Parameters", J. J. P. Stewart, J. Mol. Mod., 1:32, 19 (2013)
 http://www.springerlink.com/openurl.asp?genre=article&id=doi:10.1007/s00894-012-1667-x

           Empirical Formula: C9 H10 O3  =    22 atoms



      MOLECULAR POINT GROUP   :   Cs  


      RHF CALCULATION, NO. OF DOUBLY OCCUPIED LEVELS = 32


          Geometry optimization using EF
  SCF CRITERION =    0.1000E-05

          DIAGONAL MATRIX USED AS START HESSIAN

 CYCLE:     1 TIME:   0.047 TIME LEFT:  2.00D  GRAD.:   536.613 HEAT: -69.85738
 CYCLE:     2 TIME:   0.078 TIME LEFT:  2.00D  GRAD.:   388.239 HEAT: -75.24995
 CYCLE:     3 TIME:   0.016 TIME LEFT:  2.00D  GRAD.:   181.891 HEAT: -87.09441
 CYCLE:     4 TIME:   0.031 TIME LEFT:  2.00D  GRAD.:    71.426 HEAT: -94.51542
 CYCLE:     5 TIME:   0.031 TIME LEFT:  2.00D  GRAD.:    60.819 HEAT: -95.39901
 CYCLE:     6 TIME:   0.016 TIME LEFT:  2.00D  GRAD.:    64.347 HEAT: -95.84935
 CYCLE:     7 TIME:   0.016 TIME LEFT:  2.00D  GRAD.:    55.861 HEAT: -96.16018
 CYCLE:     8 TIME:   0.047 TIME LEFT:  2.00D  GRAD.:    13.405 HEAT: -96.33743
 CYCLE:     9 TIME:   0.016 TIME LEFT:  2.00D  GRAD.:    31.029 HEAT: -96.33837
 CYCLE:    10 TIME:   0.016 TIME LEFT:  2.00D  GRAD.:     5.811 HEAT: -96.39812
 CYCLE:    11 TIME:   0.031 TIME LEFT:  2.00D  GRAD.:     2.271 HEAT: -96.40906
 CYCLE:    12 TIME:   0.016 TIME LEFT:  2.00D  GRAD.:     2.237 HEAT: -96.41445
 CYCLE:    13 TIME:   0.016 TIME LEFT:  2.00D  GRAD.:     0.613 HEAT: -96.41617

     GRADIENT =  0.61282 IS LESS THAN CUTOFF =  1.00000



 -------------------------------------------------------------------------------
 STATIC RELSCF=0.01
 3-ethoxy-4-hydroxybenzaldehyde.mop



     GEOMETRY OPTIMISED USING EIGENVECTOR FOLLOWING (EF).     
     SCF FIELD WAS ACHIEVED                                   


                              PM7 CALCULATION
                                                       MOPAC2016 (Version: 19.179W)
                                                       Tue Oct 29 11:41:18 2019
                                                       No. of days remaining = 242




          FINAL HEAT OF FORMATION =        -96.41617 KCAL/MOL =    -403.40525 KJ/MOL


          TOTAL ENERGY            =      -2125.78406 EV
          ELECTRONIC ENERGY       =     -10765.13044 EV  POINT GROUP:     Cs  
          CORE-CORE REPULSION     =       8639.34638 EV
          COSMO AREA              =        199.96 SQUARE ANGSTROMS
          COSMO VOLUME            =        199.32 CUBIC ANGSTROMS

          GRADIENT NORM           =          0.61282 = 0.13065 PER ATOM
          IONIZATION POTENTIAL    =          9.029289 EV
          HOMO LUMO ENERGIES (EV) =         -9.029 -0.630
          NO. OF FILLED LEVELS    =         32
          MOLECULAR WEIGHT        =        166.1762

          MOLECULAR DIMENSIONS (Angstroms)

            Atom       Atom       Distance
            H    18    O    12     8.44558
            H    22    H    14     5.57292
            H    20    H    17     1.84692


          SCF CALCULATIONS        =         17
 
          WALL-CLOCK TIME         =          0.406 SECONDS
          COMPUTATION TIME        =          0.702 SECONDS




  ATOM    CHEMICAL      BOND LENGTH      BOND ANGLE     TWIST ANGLE 
 NUMBER    SYMBOL       (ANGSTROMS)      (DEGREES)       (DEGREES) 
   (I)                     NA:I           NB:NA:I       NC:NB:NA:I       NA    NB    NC 
     1       C          0.00000000       0.0000000       0.0000000        0     0     0
     2       C          1.39567822  *    0.0000000       0.0000000        1     0     0
     3       C          1.39014277  *  118.8348565  *    0.0000000        2     1     0
     4       C          1.41873652  *  120.7647763  *   -0.0535605  *     3     2     1
     5       C          1.38326522  *  120.0326612  *    0.1064510  *     4     3     2
     6       C          1.39185371  *  120.4785678  *   -0.0330033  *     1     2     3
     7       O          1.36119717  *  112.9391015  * -179.5569258  *     4     3     2
     8       C          1.43322044  *  116.9902459  * -178.5175070  *     7     4     3
     9       C          1.52133619  *  103.1294463  *  179.9123533  *     8     7     4
    10       O          1.35264791  *  116.7854078  *  179.8314121  *     3     2     1
    11       C          1.47633185  *  119.5159798  * -179.9500107  *     6     1     2
    12       O          1.20878950  *  122.0959387  *    0.0071692  *    11     6     1
    13       H          1.09469103  *  120.0570652  *  179.9823443  *     1     2     3
    14       H          1.08890988  *  121.3697430  *  179.9430868  *     2     1     6
    15       H          1.08645621  *  121.3528988  *  179.9934932  *     5     4     3
    16       H          1.10410192  *  109.0155329  *  -60.4686979  *     8     7     4
    17       H          1.10406344  *  109.0055662  *   60.2418049  *     8     7     4
    18       H          1.09621639  *  111.0986769  * -179.9979349  *     9     8     7
    19       H          1.09842874  *  111.4228061  *  -59.7264612  *     9     8     7
    20       H          1.09848026  *  111.4025795  *   59.7458387  *     9     8     7
    21       H          0.99400595  *  111.5612411  * -179.5420400  *    10     3     2
    22       H          1.09833432  *  117.7340562  * -179.9931990  *    11     6     1

                             CARTESIAN COORDINATES

   1    C        0.000000000     0.000000000     0.000000000
   2    C        1.395678215     0.000000000     0.000000000
   3    C        2.066125579     1.217783748     0.000000000
   4    C        1.348189625     2.441458528    -0.001139609
   5    C       -0.035046682     2.432583031    -0.000043396
   6    C       -0.705970507     1.199525708     0.000690946
   7    O        2.160898829     3.533370087    -0.010660126
   8    C        1.525311270     4.817573563     0.020496154
   9    C        2.699448121     5.784803220     0.002241430
  10    O        3.417903673     1.169412874     0.003552988
  11    C       -2.182093588     1.174723619     0.001797560
  12    O       -2.807075583     0.140040402     0.002257518
  13    H       -0.548289460    -0.947484585    -0.000291967
  14    H        1.962519851    -0.929739289     0.000387986
  15    H       -0.606280563     3.356746661    -0.000775963
  16    H        0.880664978     4.921607831    -0.869812268
  17    H        0.925790086     4.899720646     0.943958279
  18    H        2.354171773     6.825011799     0.023235195
  19    H        3.358904547     5.631639332     0.867229140
  20    H        3.313938277     5.652359526    -0.898602286
  21    H        3.816003170     2.080189401     0.010675660
  22    H       -2.709483209     2.138154109     0.002207318


           Empirical Formula: C9 H10 O3  =    22 atoms



      MOLECULAR POINT GROUP   :   Cs  


                  EIGENVALUES  
 -31.48095 -31.02365 -30.49329 -30.23194 -27.53096 -26.55906 -25.63540 -22.96465
 -22.62793 -20.94635 -20.22447 -18.82452 -17.56648 -16.90036 -16.76800 -16.43420
 -15.21637 -15.08760 -14.79860 -14.45353 -14.19268 -14.10239 -13.84743 -13.54514
 -13.39206 -12.70518 -12.49181 -12.28208 -11.83743 -10.21142  -9.98984  -9.02929
  -0.62982  -0.09107   1.10866   1.19300   2.29464   2.44149   3.16600   3.46935
   3.59632   4.14383   4.32532   4.38481   4.57922   4.78809   4.80730   5.07478
   5.11211   5.25866   5.29481   5.38988   5.39725   5.50955   5.59070   6.01091
   6.08512   6.39250


              NET ATOMIC CHARGES AND DIPOLE CONTRIBUTIONS

  ATOM NO.   TYPE          CHARGE      No. of ELECS.   s-Pop       p-Pop       
    1          C          -0.058732        4.0587     1.08822     2.97051
    2          C          -0.233702        4.2337     1.07678     3.15692
    3          C           0.243583        3.7564     1.07934     2.67707
    4          C           0.091620        3.9084     1.07644     2.83194
    5          C          -0.195031        4.1950     1.07766     3.11737
    6          C          -0.185085        4.1851     1.07007     3.11502
    7          O          -0.369115        6.3691     1.86486     4.50425
    8          C          -0.004683        4.0047     1.09110     2.91358
    9          C          -0.461718        4.4617     1.05446     3.40725
   10          O          -0.444815        6.4448     1.84015     4.60467
   11          C           0.346753        3.6532     1.13348     2.51977
   12          O          -0.437676        6.4377     1.87922     4.55845
   13          H           0.177629        0.8224     0.82237
   14          H           0.183546        0.8165     0.81645
   15          H           0.160108        0.8399     0.83989
   16          H           0.127459        0.8725     0.87254
   17          H           0.127595        0.8724     0.87240
   18          H           0.157496        0.8425     0.84250
   19          H           0.162606        0.8374     0.83739
   20          H           0.162906        0.8371     0.83709
   21          H           0.341799        0.6582     0.65820
   22          H           0.107461        0.8925     0.89254
 DIPOLE           X         Y         Z       TOTAL
 POINT-CHG.     0.983     4.588     0.059     4.693
 HYBRID         0.766     0.349    -0.007     0.842
 SUM            1.749     4.937     0.052     5.238


          ATOMIC ORBITAL ELECTRON POPULATIONS

     Atom    s        px        py        pz   
    1  C   1.08822   0.98884   1.06001   0.92167
    2  C   1.07678   1.01300   1.05510   1.08882
    3  C   1.07934   0.78786   0.95729   0.93192
    4  C   1.07644   0.93623   0.85789   1.03782
    5  C   1.07766   1.00102   1.06370   1.05265
    6  C   1.07007   1.02009   0.98571   1.10921
    7  O   1.86486   1.38222   1.21918   1.90286
    8  C   1.09110   1.00396   0.78245   1.12717
    9  C   1.05446   1.10004   1.10825   1.19896
   10  O   1.84015   1.26945   1.44183   1.89338
   11  C   1.13348   0.91042   0.92759   0.68176
   12  O   1.87922   1.73460   1.45379   1.37007
   13  H   0.82237
   14  H   0.81645
   15  H   0.83989
   16  H   0.87254
   17  H   0.87240
   18  H   0.84250
   19  H   0.83739
   20  H   0.83709
   21  H   0.65820
   22  H   0.89254
 ******************** FINITE-FIELD POLARIZABILITIES ********************

    THE F-F METHOD IS PERFORMED USING BOTH AN ENERGY
    AND DIPOLE MOMENT EXPANSION.  THESE RESULTS ARE
    LISTED BELOW AS "H.o.F." AND "Dipole", RESPECTIVELY.

          MOLECULAR WEIGHT =  166.18



          ROTATIONAL CONSTANTS IN CM(-1)

          A =    0.05204013   B =    0.01914457   C =    0.01407147



           PRINCIPAL MOMENTS OF INERTIA IN UNITS OF 10**(-40)*GRAM-CM**2

          A =      537.9074   B =     1462.1785   C =     1989.3280


 ROTATION MATRIX FOR ORIENTATION OF MOLECULE:

         0.729009   -0.684504    0.000535
         0.684504    0.729008   -0.001211
         0.000439    0.001249    0.999999


          CARTESIAN COORDINATES 

    NO.       ATOM         X         Y         Z

     1         C       -1.9751   -0.9554    0.0003
     2         C       -0.9577   -1.9107    0.0011
     3         C        0.3647   -1.4819   -0.0001
     4         C        0.6789   -0.0984   -0.0031
     5         C       -0.3356    0.8420   -0.0027
     6         C       -1.6687    0.4023   -0.0008
     7         O        2.0188    0.1413   -0.0135
     8         C        2.4345    1.5126    0.0158
     9         C        3.9525    1.4140   -0.0030
    10         O        1.3170   -2.4424    0.0043
    11         C       -2.7618    1.3946   -0.0005
    12         O       -3.9257    1.0682    0.0009
    13         H       -3.0234   -1.2708    0.0009
    14         H       -1.1808   -2.9765    0.0029
    15         H       -0.1194    1.9067   -0.0049
    16         H        2.0354    2.0286   -0.8750
    17         H        2.0541    1.9840    0.9388
    18         H        4.4128    2.4087    0.0165
    19         H        4.3288    0.8520    0.8625
    20         H        4.3094    0.8957   -0.9034
    21         H        2.2307   -2.0510    0.0105
    22         H       -2.4868    2.4580   -0.0015
  SCF CRITERION =    0.1000E-05


 ENERGY OF "REORIENTED" SYSTEM WITHOUT FIELD:      -96.41617 Kcal/mol


 APPLIED ELECTRIC FIELD MAGNITUDE:         0.10284 VOLTS PER ANGSTROM
    Step  1 of 36 done (+X)
    Step  2 of 36 done (-X)
    Step  3 of 36 done (+2X)
    Step  4 of 36 done (-2X)
    Step  5 of 36 done (+Y)
    Step  6 of 36 done (-Y)
    Step  7 of 36 done (+2Y)
    Step  8 of 36 done (-2Y)
    Step  9 of 36 done (+Y+X)
    Step 10 of 36 done (+Y-X)
    Step 11 of 36 done (-Y-X)
    Step 12 of 36 done (-Y+X)
    Step 13 of 36 done (+2Y+2X)
    Step 14 of 36 done (+2Y-2X)
    Step 15 of 36 done (-2Y-2X)
    Step 16 of 36 done (-2Y+2X)
    Step 17 of 36 done (+Z)
    Step 18 of 36 done (-Z)
    Step 19 of 36 done (+2Z)
    Step 20 of 36 done (-2Z)
    Step 21 of 36 done (+Z+X)
    Step 22 of 36 done (+Z-X)
    Step 23 of 36 done (-Z-X)
    Step 24 of 36 done (-Z+X)
    Step 25 of 36 done (+2Z+2X)
    Step 26 of 36 done (+2Z-2X)
    Step 27 of 36 done (-2Z-2X)
    Step 28 of 36 done (-2Z+2X)
    Step 29 of 36 done (+Z+Y)
    Step 30 of 36 done (+Z-Y)
    Step 31 of 36 done (-Z-Y)
    Step 32 of 36 done (-Z+Y)
    Step 33 of 36 done (+2Z+2Y)
    Step 34 of 36 done (+2Z-2Y)
    Step 35 of 36 done (-2Z-2Y)
    Step 36 of 36 done (-2Z+2Y)


 ****************************** DIPOLE ******************************


                     H.o.F.         Dipole

     X             -1.831379      -1.831253
     Y             -0.944913      -0.944919
     X             -0.018539      -0.018584


 MAGNITUDE:         2.060862       2.060753  (A.U.)
                    5.238189       5.237912  (DEBYE)


 ****************************** POLARIZABILITY ********************



 Polarizability Tensor from Heat of Formation:


                     1          2          3
 ------------------------------------------
          1 146.415319
          2  -6.311618 126.980688
          3  -0.007468  -0.000598  92.145092




    ROOT NO.    1           2           3

            92.14509   125.11082   148.28518
  
         1   0.00014     0.28405    -0.95881
         2   0.00004     0.95881     0.28405
         3   1.00000    -0.00008     0.00012

 Polarizability Tensor from Dipole Moment:


                     1          2          3
 ------------------------------------------
          1 146.420490
          2  -6.365960 127.009332
          3   0.025496  -0.030324  92.136863




    ROOT NO.    1           2           3

            92.13683   125.10787   148.32199
  
         1  -0.00038     0.28620    -0.95817
         2   0.00080     0.95817     0.28620
         3   1.00000    -0.00066    -0.00059


 Average Polarizability from:     H.o.F         Dipole
                              121.847033     121.855562  A.U.
                               18.055293      18.056557  ANG.**3
                            3.610961D-23   3.611214D-23  ESU

 **********************
 *                    *
 * JOB ENDED NORMALLY *
 *                    *
 **********************



 TOTAL JOB TIME:             0.59 SECONDS

 == MOPAC DONE ==
