 *******************************************************************************
 ** Site#: 32691        For non-commercial use only    Version 19.179W 32BITS **
 *******************************************************************************
 ** Cite this program as: MOPAC2016, Version: 19.179W, James J. P. Stewart,   **
 ** Stewart Computational Chemistry, web: HTTP://OpenMOPAC.net. Days left: 242**
 *******************************************************************************
 **                                                                           **
 **                                MOPAC2016                                  **
 **                                                                           **
 *******************************************************************************

                              PM7 CALCULATION RESULTS

 *******************************************************************************
 *  CALCULATION DONE:                                Tue Oct 29 11:46:34 2019  *
 *  STATIC     - CALCULATE STATIC FIELD POLARIZABILITIES
 *  T=         - A TIME OF 172800.0 SECONDS REQUESTED
 *  DUMP=N     - RESTART FILE WRITTEN EVERY  7200.000 SECONDS
 *  RELSCF     - DEFAULT SCF CRITERION MULTIPLIED BY 0.0100
 *              (DEFAULT SCF CRITERION = 0.00010)
 *******************************************************************************
STATIC RELSCF=0.01
 3-ethoxy-4-methoxybenzaldehyde.mop

  ATOM    CHEMICAL      BOND LENGTH      BOND ANGLE     TWIST ANGLE 
 NUMBER    SYMBOL       (ANGSTROMS)      (DEGREES)       (DEGREES) 
   (I)                     NA:I           NB:NA:I       NC:NB:NA:I       NA    NB    NC 
     1       C          0.00000000       0.0000000       0.0000000        0     0     0
     2       C          1.35032800  *    0.0000000       0.0000000        1     0     0
     3       C          1.34258100  *  124.1783480  *    0.0000000        2     1     0
     4       C          1.34013400  *  117.3143950  *   -0.0020150  *     3     2     1
     5       C          1.34018200  *  119.4673930  *   -0.0009830  *     4     3     2
     6       C          1.35955600  *  118.1310070  *    0.0044160  *     1     2     3
     7       C          1.36065400  *  121.1134560  *  179.9987580  *     3     2     1
     8       O          1.21147600  *  125.6255430  *  179.9995780  *     7     3     2
     9       O          1.37469500  *  120.5159910  *  179.9956770  *     6     1     2
    10       C          1.40837600  *  120.3160490  * -179.9818910  *     9     6     1
    11       O          1.38025000  *  114.7955140  *  179.9969180  *     1     2     3
    12       C          1.40121700  *  122.3965260  * -179.9445550  *    11     1     2
    13       C          1.52792200  *  108.4027790  *  179.9732770  *    12    11     1
    14       H          1.10485700  *  116.7783190  * -179.9956640  *     2     1     6
    15       H          1.10290700  *  121.8427990  * -179.9994550  *     4     3     2
    16       H          1.10158900  *  115.3771830  * -179.9985380  *     5     4     3
    17       H          1.11594400  *  115.3643850  *   -0.0004940  *     7     3     2
    18       H          1.11325600  *  107.5864750  *  179.9908680  *    10     9     6
    19       H          1.11281100  *  110.4815470  *  -62.4599480  *    10     9     6
    20       H          1.11281300  *  110.4805510  *   62.4418260  *    10     9     6
    21       H          1.11469000  *  109.6925930  *  -61.7047320  *    12    11     1
    22       H          1.11469200  *  109.6921180  *   61.6501820  *    12    11     1
    23       H          1.11452700  *  110.9820670  *  179.9975910  *    13    12    11
    24       H          1.11438900  *  111.1973910  *  -60.1191250  *    13    12    11
    25       H          1.11438900  *  111.1976550  *   60.1138920  *    13    12    11
 


          CARTESIAN COORDINATES 

    NO.       ATOM           X           Y           Z

     1         C          0.0000      0.0000      0.0000
     2         C          1.3503      0.0000      0.0000
     3         C          2.1046      1.1107      0.0000
     4         C          1.4649      2.2884     -0.0000
     5         C          0.1250      2.3108     -0.0001
     6         C         -0.6410      1.1990     -0.0001
     7         C          3.4633      1.0380      0.0000
     8         O          4.2206      1.9836      0.0000
     9         O         -2.0145      1.2562     -0.0002
    10         C         -2.6742      2.5005     -0.0007
    11         O         -0.5789     -1.2530     -0.0001
    12         C         -1.9678     -1.4383     -0.0012
    13         C         -2.2541     -2.9392     -0.0016
    14         H          1.8481     -0.9864      0.0000
    15         H          2.0106      3.2469     -0.0001
    16         H         -0.3304      3.3139     -0.0002
    17         H          3.8867      0.0055      0.0001
    18         H         -3.7694      2.3006     -0.0008
    19         H         -2.4308      3.0706      0.9235
    20         H         -2.4304      3.0701     -0.9251
    21         H         -2.4067     -0.9946      0.9223
    22         H         -2.4052     -0.9944     -0.9254
    23         H         -3.3511     -3.1362     -0.0025
    24         H         -1.8204     -3.4319     -0.9022
    25         H         -1.8218     -3.4321      0.8995

 General Reference for PM7:
 "Optimization of Parameters for Semiempirical Methods VI: More Modifications to the 
 NDDO Approximations and Re-optimization of Parameters", J. J. P. Stewart, J. Mol. Mod., 1:32, 19 (2013)
 http://www.springerlink.com/openurl.asp?genre=article&id=doi:10.1007/s00894-012-1667-x

           Empirical Formula: C10 H12 O3  =    25 atoms



      MOLECULAR POINT GROUP   :   Cs  


      RHF CALCULATION, NO. OF DOUBLY OCCUPIED LEVELS = 35


          Geometry optimization using EF
  SCF CRITERION =    0.1000E-05

          DIAGONAL MATRIX USED AS START HESSIAN

 CYCLE:     1 TIME:   0.031 TIME LEFT:  2.00D  GRAD.:   458.160 HEAT: -61.85862
 CYCLE:     2 TIME:   0.094 TIME LEFT:  2.00D  GRAD.:   413.692 HEAT: -66.47697
 CYCLE:     3 TIME:   0.031 TIME LEFT:  2.00D  GRAD.:   173.287 HEAT: -78.97637
 CYCLE:     4 TIME:   0.031 TIME LEFT:  2.00D  GRAD.:    61.014 HEAT: -86.60613
 CYCLE:     5 TIME:   0.047 TIME LEFT:  2.00D  GRAD.:    65.909 HEAT: -87.81052
 CYCLE:     6 TIME:   0.031 TIME LEFT:  2.00D  GRAD.:    26.098 HEAT: -89.34871
 CYCLE:     7 TIME:   0.016 TIME LEFT:  2.00D  GRAD.:    17.929 HEAT: -89.83710
 CYCLE:     8 TIME:   0.016 TIME LEFT:  2.00D  GRAD.:    12.008 HEAT: -90.01657
 CYCLE:     9 TIME:   0.031 TIME LEFT:  2.00D  GRAD.:     8.615 HEAT: -90.05534
 CYCLE:    10 TIME:   0.043 TIME LEFT:  2.00D  GRAD.:     9.123 HEAT: -90.08684
 CYCLE:    11 TIME:   0.020 TIME LEFT:  2.00D  GRAD.:     4.005 HEAT: -90.10152
 CYCLE:    12 TIME:   0.016 TIME LEFT:  2.00D  GRAD.:     2.922 HEAT: -90.10664
 CYCLE:    13 TIME:   0.016 TIME LEFT:  2.00D  GRAD.:     2.119 HEAT: -90.10819
 CYCLE:    14 TIME:   0.016 TIME LEFT:  2.00D  GRAD.:     0.609 HEAT: -90.10853

     GRADIENT =  0.60942 IS LESS THAN CUTOFF =  1.00000



 -------------------------------------------------------------------------------
 STATIC RELSCF=0.01
 3-ethoxy-4-methoxybenzaldehyde.mop



     GEOMETRY OPTIMISED USING EIGENVECTOR FOLLOWING (EF).     
     SCF FIELD WAS ACHIEVED                                   


                              PM7 CALCULATION
                                                       MOPAC2016 (Version: 19.179W)
                                                       Tue Oct 29 11:46:34 2019
                                                       No. of days remaining = 242




          FINAL HEAT OF FORMATION =        -90.10853 KCAL/MOL =    -377.01409 KJ/MOL


          TOTAL ENERGY            =      -2275.24731 EV
          ELECTRONIC ENERGY       =     -12395.82313 EV  POINT GROUP:     Cs  
          CORE-CORE REPULSION     =      10120.57582 EV
          COSMO AREA              =        217.00 SQUARE ANGSTROMS
          COSMO VOLUME            =        220.05 CUBIC ANGSTROMS

          GRADIENT NORM           =          0.60942 = 0.12188 PER ATOM
          IONIZATION POTENTIAL    =          8.728992 EV
          HOMO LUMO ENERGIES (EV) =         -8.729 -0.510
          NO. OF FILLED LEVELS    =         35
          MOLECULAR WEIGHT        =        180.2030

          MOLECULAR DIMENSIONS (Angstroms)

            Atom       Atom       Distance
            H    23    O     8     9.16928
            H    17    H    19     6.17633
            H    20    H    25     2.59473


          SCF CALCULATIONS        =         19
 
          WALL-CLOCK TIME         =          0.465 SECONDS
          COMPUTATION TIME        =          0.874 SECONDS




  ATOM    CHEMICAL      BOND LENGTH      BOND ANGLE     TWIST ANGLE 
 NUMBER    SYMBOL       (ANGSTROMS)      (DEGREES)       (DEGREES) 
   (I)                     NA:I           NB:NA:I       NC:NB:NA:I       NA    NB    NC 
     1       C          0.00000000       0.0000000       0.0000000        0     0     0
     2       C          1.39484788  *    0.0000000       0.0000000        1     0     0
     3       C          1.39719088  *  119.8020758  *    0.0000000        2     1     0
     4       C          1.39170061  *  120.4605281  *   -0.0062985  *     3     2     1
     5       C          1.39491888  *  120.2586874  *    0.0031235  *     4     3     2
     6       C          1.41527815  *  119.5050123  *    0.0137949  *     1     2     3
     7       C          1.47747624  *  119.7388214  *  179.9936015  *     3     2     1
     8       O          1.20901280  *  122.0340320  *  179.9979088  *     7     3     2
     9       O          1.36050728  *  114.9198231  * -179.9860769  *     6     1     2
    10       C          1.42170789  *  117.2363612  * -179.9210964  *     9     6     1
    11       O          1.35501937  *  112.5939155  * -179.9857425  *     1     2     3
    12       C          1.43311725  *  118.7219130  * -179.9560274  *    11     1     2
    13       C          1.52304504  *  102.8732253  *  179.9669850  *    12    11     1
    14       H          1.09031661  *  118.9077093  * -179.9935332  *     2     1     6
    15       H          1.09349121  *  119.5367253  * -179.9999846  *     4     3     2
    16       H          1.08637739  *  119.2875536  * -179.9974491  *     5     4     3
    17       H          1.09860898  *  117.6308062  *   -0.0018209  *     7     3     2
    18       H          1.09868633  *  102.0132550  * -179.9954147  *    10     9     6
    19       H          1.09463225  *  110.9387711  *  -62.3505716  *    10     9     6
    20       H          1.09461645  *  110.9285708  *   62.3643896  *    10     9     6
    21       H          1.10405628  *  109.2297975  *  -60.5226640  *    12    11     1
    22       H          1.10404472  *  109.2248880  *   60.4697101  *    12    11     1
    23       H          1.09521204  *  110.9973473  *  179.9814474  *    13    12    11
    24       H          1.09810943  *  111.2179565  *  -59.5877195  *    13    12    11
    25       H          1.09812618  *  111.2249424  *   59.5420904  *    13    12    11

                             CARTESIAN COORDINATES

   1    C        0.000000000     0.000000000     0.000000000
   2    C        1.394847882     0.000000000     0.000000000
   3    C        2.089259292     1.212408816     0.000000000
   4    C        1.398940300     2.420833518    -0.000131873
   5    C        0.004079151     2.433524664    -0.000199939
   6    C       -0.697024063     1.231734393    -0.000296561
   7    C        3.566734630     1.210777689     0.000143265
   8    O        4.209153812     2.234989360     0.000111264
   9    O       -2.053177115     1.122973823     0.000029453
  10    C       -2.802809019     2.330989248    -0.001988228
  11    O       -0.520594759    -1.251022983     0.000311305
  12    C       -1.945522689    -1.404008540    -0.000615170
  13    C       -2.124410997    -2.916511478    -0.000775130
  14    H        1.921907123    -0.954462602     0.000122076
  15    H        1.957639111     3.360822167    -0.000130190
  16    H       -0.518726479     3.385832430    -0.000345029
  17    H        4.075164353     0.236898384     0.000277520
  18    H       -3.836487863     1.958673518    -0.001152127
  19    H       -2.605860864     2.915104279     0.902578414
  20    H       -2.606109550     2.911703700    -0.908776631
  21    H       -2.362476829    -0.932293101     0.906343511
  22    H       -2.361189074    -0.932426083    -0.908219817
  23    H       -3.185914247    -3.186141092    -0.001138773
  24    H       -1.655905591    -3.372023920    -0.883302986
  25    H       -1.656381645    -3.372286087     0.881890796


           Empirical Formula: C10 H12 O3  =    25 atoms



      MOLECULAR POINT GROUP   :   Cs  


                  EIGENVALUES  
 -31.28874 -30.91751 -30.40024 -30.13693 -27.26252 -26.43786 -25.84463 -24.85002
 -22.71976 -21.78257 -20.99211 -20.00182 -18.47817 -17.35785 -16.67727 -16.48415
 -16.11983 -15.94226 -15.17967 -15.05721 -14.53431 -14.38546 -14.00538 -13.77639
 -13.72526 -13.27599 -12.82366 -12.82352 -12.59830 -12.04041 -11.85855 -11.45366
 -10.09655  -9.81307  -8.72899  -0.50977   0.07485   1.22119   1.26748   1.94247
   2.43751   3.35693   3.70459   3.79911   4.11398   4.26469   4.61269   4.64347
   4.81567   5.03981   5.04301   5.15917   5.23197   5.29429   5.47265   5.55053
   5.57419   5.69427   5.83014   5.84193   5.86642   6.03138   6.13181   6.75067


              NET ATOMIC CHARGES AND DIPOLE CONTRIBUTIONS

  ATOM NO.   TYPE          CHARGE      No. of ELECS.   s-Pop       p-Pop       
    1          C           0.145544        3.8545     1.07693     2.77753
    2          C          -0.170007        4.1700     1.08036     3.08965
    3          C          -0.175664        4.1757     1.07154     3.10412
    4          C          -0.073622        4.0736     1.08563     2.98799
    5          C          -0.262154        4.2622     1.07582     3.18634
    6          C           0.156762        3.8432     1.08556     2.75768
    7          C           0.352244        3.6478     1.13437     2.51338
    8          O          -0.441428        6.4414     1.87921     4.56222
    9          O          -0.326205        6.3262     1.86636     4.45985
   10          C          -0.198275        4.1983     1.08773     3.11055
   11          O          -0.330634        6.3306     1.86503     4.46561
   12          C          -0.017214        4.0172     1.09271     2.92450
   13          C          -0.459748        4.4597     1.05470     3.40505
   14          H           0.174589        0.8254     0.82541
   15          H           0.174705        0.8253     0.82529
   16          H           0.166459        0.8335     0.83354
   17          H           0.112281        0.8877     0.88772
   18          H           0.152185        0.8478     0.84781
   19          H           0.137969        0.8620     0.86203
   20          H           0.137964        0.8620     0.86204
   21          H           0.134574        0.8654     0.86543
   22          H           0.134534        0.8655     0.86547
   23          H           0.153676        0.8463     0.84632
   24          H           0.160719        0.8393     0.83928
   25          H           0.160745        0.8393     0.83926
 DIPOLE           X         Y         Z       TOTAL
 POINT-CHG.    -4.434    -0.758    -0.005     4.498
 HYBRID        -0.321    -0.160     0.000     0.359
 SUM           -4.755    -0.918    -0.004     4.843


          ATOMIC ORBITAL ELECTRON POPULATIONS

     Atom    s        px        py        pz   
    1  C   1.07693   0.94200   0.83616   0.99936
    2  C   1.08036   0.99216   1.06361   1.03388
    3  C   1.07154   1.02047   0.98842   1.09523
    4  C   1.08563   0.98713   1.06091   0.93996
    5  C   1.07582   1.02477   1.05343   1.10814
    6  C   1.08556   0.80615   0.97638   0.97514
    7  C   1.13437   0.90592   0.92993   0.67754
    8  O   1.87921   1.72499   1.46526   1.37197
    9  O   1.86636   1.22858   1.33956   1.89170
   10  C   1.08773   1.02781   0.93511   1.14762
   11  O   1.86503   1.29597   1.28099   1.88865
   12  C   1.09271   0.78460   0.99966   1.14024
   13  C   1.05470   1.16833   1.03963   1.19709
   14  H   0.82541
   15  H   0.82529
   16  H   0.83354
   17  H   0.88772
   18  H   0.84781
   19  H   0.86203
   20  H   0.86204
   21  H   0.86543
   22  H   0.86547
   23  H   0.84632
   24  H   0.83928
   25  H   0.83926
 ******************** FINITE-FIELD POLARIZABILITIES ********************

    THE F-F METHOD IS PERFORMED USING BOTH AN ENERGY
    AND DIPOLE MOMENT EXPANSION.  THESE RESULTS ARE
    LISTED BELOW AS "H.o.F." AND "Dipole", RESPECTIVELY.

          MOLECULAR WEIGHT =  180.20



          ROTATIONAL CONSTANTS IN CM(-1)

          A =    0.04314977   B =    0.01649285   C =    0.01201517



           PRINCIPAL MOMENTS OF INERTIA IN UNITS OF 10**(-40)*GRAM-CM**2

          A =      648.7351   B =     1697.2672   C =     2329.7852


 ROTATION MATRIX FOR ORIENTATION OF MOLECULE:

         0.888410   -0.459051   -0.000205
         0.459051    0.888410    0.000119
         0.000127   -0.000200    1.000000


          CARTESIAN COORDINATES 

    NO.       ATOM         X         Y         Z

     1         C       -0.4081   -0.5015    0.0002
     2         C        0.8311   -1.1418   -0.0000
     3         C        2.0046   -0.3835   -0.0000
     4         C        1.9460    1.0070    0.0001
     5         C        0.7126    1.6586    0.0003
     6         C       -0.4619    0.9127    0.0002
     7         C        3.3164   -1.0632   -0.0002
     8         O        4.3573   -0.4482   -0.0002
     9         O       -1.7167    1.4386    0.0008
    10         C       -1.8281    2.8560   -0.0009
    11         O       -1.4449   -1.3740    0.0005
    12         C       -2.7810   -0.8558   -0.0001
    13         C       -3.6343   -2.1174   -0.0005
    14         H        0.8612   -2.2317   -0.0001
    15         H        2.8739    1.5856    0.0001
    16         H        0.6853    2.7446    0.0004
    17         H        3.3211   -2.1618   -0.0003
    18         H       -2.9174    2.9997    0.0001
    19         H       -1.3849    3.2843    0.9037
    20         H       -1.3869    3.2818   -0.9077
    21         H       -2.9348   -0.2455    0.9070
    22         H       -2.9340   -0.2458   -0.9076
    23         H       -4.7011   -1.8696   -0.0006
    24         H       -3.4273   -2.7370   -0.8831
    25         H       -3.4276   -2.7373    0.8821
  SCF CRITERION =    0.1000E-05


 ENERGY OF "REORIENTED" SYSTEM WITHOUT FIELD:      -90.10853 Kcal/mol


 APPLIED ELECTRIC FIELD MAGNITUDE:         0.10284 VOLTS PER ANGSTROM
    Step  1 of 36 done (+X)
    Step  2 of 36 done (-X)
    Step  3 of 36 done (+2X)
    Step  4 of 36 done (-2X)
    Step  5 of 36 done (+Y)
    Step  6 of 36 done (-Y)
    Step  7 of 36 done (+2Y)
    Step  8 of 36 done (-2Y)
    Step  9 of 36 done (+Y+X)
    Step 10 of 36 done (+Y-X)
    Step 11 of 36 done (-Y-X)
    Step 12 of 36 done (-Y+X)
    Step 13 of 36 done (+2Y+2X)
    Step 14 of 36 done (+2Y-2X)
    Step 15 of 36 done (-2Y-2X)
    Step 16 of 36 done (-2Y+2X)
    Step 17 of 36 done (+Z)
    Step 18 of 36 done (-Z)
    Step 19 of 36 done (+2Z)
    Step 20 of 36 done (-2Z)
    Step 21 of 36 done (+Z+X)
    Step 22 of 36 done (+Z-X)
    Step 23 of 36 done (-Z-X)
    Step 24 of 36 done (-Z+X)
    Step 25 of 36 done (+2Z+2X)
    Step 26 of 36 done (+2Z-2X)
    Step 27 of 36 done (-2Z-2X)
    Step 28 of 36 done (-2Z+2X)
    Step 29 of 36 done (+Z+Y)
    Step 30 of 36 done (+Z-Y)
    Step 31 of 36 done (-Z-Y)
    Step 32 of 36 done (-Z+Y)
    Step 33 of 36 done (+2Z+2Y)
    Step 34 of 36 done (+2Z-2Y)
    Step 35 of 36 done (-2Z-2Y)
    Step 36 of 36 done (-2Z+2Y)


 ****************************** DIPOLE ******************************


                     H.o.F.         Dipole

     X              1.827838       1.827790
     Y             -0.537938      -0.537904
     X              0.001360       0.001212


 MAGNITUDE:         1.905353       1.905297  (A.U.)
                    4.842924       4.842782  (DEBYE)


 ****************************** POLARIZABILITY ********************



 Polarizability Tensor from Heat of Formation:


                     1          2          3
 ------------------------------------------
          1 162.530078
          2  -2.783427 139.499816
          3  -0.005938  -0.003547 104.315971




    ROOT NO.    1           2           3

           104.31597   139.16819   162.86171
  
         1   0.00011     0.11831    -0.99298
         2   0.00011     0.99298     0.11831
         3   1.00000    -0.00012     0.00009

 Polarizability Tensor from Dipole Moment:


                     1          2          3
 ------------------------------------------
          1 162.515784
          2  -2.849944 139.524348
          3   0.041081  -0.160745 104.292215




    ROOT NO.    1           2           3

           104.29147   139.17703   162.86385
  
         1  -0.00048     0.12122    -0.99263
         2   0.00452     0.99262     0.12121
         3   0.99999    -0.00443    -0.00103


 Average Polarizability from:     H.o.F         Dipole
                              135.448622     135.444116  A.U.
                               20.070777      20.070109  ANG.**3
                            4.014047D-23   4.013913D-23  ESU

 **********************
 *                    *
 * JOB ENDED NORMALLY *
 *                    *
 **********************



 TOTAL JOB TIME:             0.66 SECONDS

 == MOPAC DONE ==
