 *******************************************************************************
 ** Site#: 32691        For non-commercial use only    Version 19.179W 32BITS **
 *******************************************************************************
 ** Cite this program as: MOPAC2016, Version: 19.179W, James J. P. Stewart,   **
 ** Stewart Computational Chemistry, web: HTTP://OpenMOPAC.net. Days left: 242**
 *******************************************************************************
 **                                                                           **
 **                                MOPAC2016                                  **
 **                                                                           **
 *******************************************************************************

                              PM7 CALCULATION RESULTS

 *******************************************************************************
 *  CALCULATION DONE:                                Tue Oct 29 11:36:16 2019  *
 *  STATIC     - CALCULATE STATIC FIELD POLARIZABILITIES
 *  T=         - A TIME OF 172800.0 SECONDS REQUESTED
 *  DUMP=N     - RESTART FILE WRITTEN EVERY  7200.000 SECONDS
 *  RELSCF     - DEFAULT SCF CRITERION MULTIPLIED BY 0.0100
 *              (DEFAULT SCF CRITERION = 0.00010)
 *******************************************************************************
STATIC RELSCF=0.01
 Isovanillin.mop

  ATOM    CHEMICAL      BOND LENGTH      BOND ANGLE     TWIST ANGLE 
 NUMBER    SYMBOL       (ANGSTROMS)      (DEGREES)       (DEGREES) 
   (I)                     NA:I           NB:NA:I       NC:NB:NA:I       NA    NB    NC 
     1       C          0.00000000       0.0000000       0.0000000        0     0     0
     2       C          1.34479000  *    0.0000000       0.0000000        1     0     0
     3       C          1.35029200  *  120.4724260  *    0.0000000        2     1     0
     4       C          1.34754400  *  117.2263880  *    0.0067950  *     3     2     1
     5       C          1.34180800  *  122.2214260  *   -0.0052570  *     4     3     2
     6       C          1.34372200  *  121.8948850  *   -0.0038360  *     1     2     3
     7       C          1.36075000  *  121.6029160  *  179.9989510  *     6     1     2
     8       O          1.21153100  *  125.9758250  *   -0.0013190  *     7     6     1
     9       O          1.37475100  *  117.7815770  * -179.9980550  *     3     2     1
    10       C          1.40815600  *  119.1613070  * -179.9781920  *     9     3     2
    11       O          1.36252000  *  120.1521000  * -179.9975330  *     2     1     6
    12       H          1.10286200  *  117.1157020  *  179.9956370  *     1     2     3
    13       H          1.10162100  *  120.9690220  *  179.9963420  *     4     3     2
    14       H          1.10373100  *  118.3820880  * -179.9980840  *     5     4     3
    15       H          1.11613400  *  115.1484990  *  179.9994440  *     7     6     1
    16       H          1.11311500  *  107.7481910  *  179.9937880  *    10     9     3
    17       H          1.11279900  *  110.3273950  *  -62.1170860  *    10     9     3
    18       H          1.11280000  *  110.3269370  *   62.1040090  *    10     9     3
    19       H          0.97103100  *  109.1481600  *  179.9591970  *    11     2     1
 


          CARTESIAN COORDINATES 

    NO.       ATOM           X           Y           Z

     1         C          0.0000      0.0000      0.0000
     2         C          1.3448      0.0000      0.0000
     3         C          2.0296      1.1638      0.0000
     4         C          1.3095      2.3028      0.0001
     5         C         -0.0323      2.3009      0.0002
     6         C         -0.7100      1.1408      0.0001
     7         C         -2.0707      1.1339      0.0001
     8         O         -2.7774      0.1498     -0.0001
     9         O          3.4028      1.0992     -0.0000
    10         C          4.1459      2.2953      0.0004
    11         O          2.0292     -1.1782     -0.0001
    12         H         -0.5027     -0.9816     -0.0001
    13         H          1.8050      3.2867      0.0002
    14         H         -0.5583      3.2713      0.0003
    15         H         -2.5502      2.1418      0.0001
    16         H          5.2255      2.0241      0.0004
    17         H          3.9354      2.8816     -0.9217
    18         H          3.9352      2.8810      0.9229
    19         H          2.9824     -0.9928     -0.0008

 General Reference for PM7:
 "Optimization of Parameters for Semiempirical Methods VI: More Modifications to the 
 NDDO Approximations and Re-optimization of Parameters", J. J. P. Stewart, J. Mol. Mod., 1:32, 19 (2013)
 http://www.springerlink.com/openurl.asp?genre=article&id=doi:10.1007/s00894-012-1667-x

           Empirical Formula: C8 H8 O3  =    19 atoms



      MOLECULAR POINT GROUP   :   Cs  


      RHF CALCULATION, NO. OF DOUBLY OCCUPIED LEVELS = 29


          Geometry optimization using EF
  SCF CRITERION =    0.1000E-05

          DIAGONAL MATRIX USED AS START HESSIAN

 CYCLE:     1 TIME:   0.031 TIME LEFT:  2.00D  GRAD.:   551.852 HEAT: -61.74572
 CYCLE:     2 TIME:   0.062 TIME LEFT:  2.00D  GRAD.:   395.339 HEAT: -66.88390
 CYCLE:     3 TIME:   0.016 TIME LEFT:  2.00D  GRAD.:   186.095 HEAT: -78.81218
 CYCLE:     4 TIME:   0.031 TIME LEFT:  2.00D  GRAD.:    79.474 HEAT: -86.06429
 CYCLE:     5 TIME:   0.031 TIME LEFT:  2.00D  GRAD.:    67.110 HEAT: -86.88016
 CYCLE:     6 TIME:   0.016 TIME LEFT:  2.00D  GRAD.:    64.456 HEAT: -87.40787
 CYCLE:     7 TIME:   0.031 TIME LEFT:  2.00D  GRAD.:    71.165 HEAT: -87.63132
 CYCLE:     8 TIME:   0.016 TIME LEFT:  2.00D  GRAD.:    37.068 HEAT: -87.74384
 CYCLE:     9 TIME:   0.031 TIME LEFT:  2.00D  GRAD.:    56.580 HEAT: -87.80416
 CYCLE:    10 TIME:   0.000 TIME LEFT:  2.00D  GRAD.:     3.618 HEAT: -87.98031
 CYCLE:    11 TIME:   0.016 TIME LEFT:  2.00D  GRAD.:     2.477 HEAT: -87.99483
 CYCLE:    12 TIME:   0.016 TIME LEFT:  2.00D  GRAD.:     1.251 HEAT: -88.00588
 CYCLE:    13 TIME:   0.016 TIME LEFT:  2.00D  GRAD.:     0.499 HEAT: -88.00734

     GRADIENT =  0.49899 IS LESS THAN CUTOFF =  1.00000



 -------------------------------------------------------------------------------
 STATIC RELSCF=0.01
 Isovanillin.mop



     GEOMETRY OPTIMISED USING EIGENVECTOR FOLLOWING (EF).     
     SCF FIELD WAS ACHIEVED                                   


                              PM7 CALCULATION
                                                       MOPAC2016 (Version: 19.179W)
                                                       Tue Oct 29 11:36:17 2019
                                                       No. of days remaining = 242




          FINAL HEAT OF FORMATION =        -88.00734 KCAL/MOL =    -368.22269 KJ/MOL


          TOTAL ENERGY            =      -1975.68711 EV
          ELECTRONIC ENERGY       =      -9361.52658 EV  POINT GROUP:     Cs  
          CORE-CORE REPULSION     =       7385.83947 EV
          COSMO AREA              =        180.20 SQUARE ANGSTROMS
          COSMO VOLUME            =        177.80 CUBIC ANGSTROMS

          GRADIENT NORM           =          0.49899 = 0.11448 PER ATOM
          IONIZATION POTENTIAL    =          9.067808 EV
          HOMO LUMO ENERGIES (EV) =         -9.068 -0.656
          NO. OF FILLED LEVELS    =         29
          MOLECULAR WEIGHT        =        152.1494

          MOLECULAR DIMENSIONS (Angstroms)

            Atom       Atom       Distance
            H    16    O     8     8.23015
            H    19    H    14     5.09347
            H    18    H    17     1.81096


          SCF CALCULATIONS        =         16
 
          WALL-CLOCK TIME         =          0.344 SECONDS
          COMPUTATION TIME        =          0.530 SECONDS




  ATOM    CHEMICAL      BOND LENGTH      BOND ANGLE     TWIST ANGLE 
 NUMBER    SYMBOL       (ANGSTROMS)      (DEGREES)       (DEGREES) 
   (I)                     NA:I           NB:NA:I       NC:NB:NA:I       NA    NB    NC 
     1       C          0.00000000       0.0000000       0.0000000        0     0     0
     2       C          1.38900387  *    0.0000000       0.0000000        1     0     0
     3       C          1.41428975  *  120.3884227  *    0.0000000        2     1     0
     4       C          1.38980840  *  120.2408408  *    0.1002914  *     3     2     1
     5       C          1.39592884  *  119.1841140  *   -0.0674486  *     4     3     2
     6       C          1.39835470  *  118.9252849  *   -0.0471530  *     1     2     3
     7       C          1.47872683  *  119.1354400  *  179.9798298  *     6     1     2
     8       O          1.20796064  *  122.1584793  *    0.0069116  *     7     6     1
     9       O          1.36030460  *  113.2299151  * -179.5910976  *     3     2     1
    10       C          1.42133069  *  117.0990586  * -178.6911374  *     9     3     2
    11       O          1.35775987  *  116.5386894  *  179.8412530  *     2     1     6
    12       H          1.09455268  *  120.3727167  *  179.9908096  *     1     2     3
    13       H          1.08584019  *  121.0956440  *  179.9737333  *     4     3     2
    14       H          1.08975233  *  119.2359251  *  179.9996515  *     5     4     3
    15       H          1.09838670  *  117.4875846  * -179.9872760  *     7     6     1
    16       H          1.09964445  *  101.9549456  *  179.9270850  *    10     9     3
    17       H          1.09463776  *  110.8324997  *  -62.3965830  *    10     9     3
    18       H          1.09461482  *  110.8227912  *   62.1889394  *    10     9     3
    19       H          0.99162642  *  111.3608300  * -179.5452410  *    11     2     1

                             CARTESIAN COORDINATES

   1    C        0.000000000     0.000000000     0.000000000
   2    C        1.389003869     0.000000000     0.000000000
   3    C        2.104435737     1.219988829     0.000000000
   4    C        1.422793671     2.431156476     0.002101683
   5    C        0.026872399     2.426610449     0.002770725
   6    C       -0.676340377     1.223911170     0.001007248
   7    C       -2.155057189     1.229335389     0.000557014
   8    O       -2.801756417     0.209066880    -0.000532262
   9    O        3.454109579     1.050490939    -0.008920962
  10    C        4.254331309     2.224812008     0.019294801
  11    O        1.995653722    -1.214694287     0.002365842
  12    H       -0.553431001    -0.944330278    -0.000151473
  13    H        1.958041989     3.375909328     0.002556300
  14    H       -0.508463444     3.375806395     0.004424152
  15    H       -2.658447163     2.205578966     0.001155169
  16    H        5.271662795     1.807575218     0.006332002
  17    H        4.078740034     2.837035498    -0.870975906
  18    H        4.081900352     2.791149222     0.940007200
  19    H        2.983207633    -1.125201137     0.009521385


           Empirical Formula: C8 H8 O3  =    19 atoms



      MOLECULAR POINT GROUP   :   Cs  


                  EIGENVALUES  
 -31.52268 -31.07747 -30.53982 -30.17832 -26.51881 -26.15488 -25.29243 -22.64982
 -21.38933 -20.60040 -18.66062 -17.73983 -17.05609 -16.45963 -15.83913 -15.27363
 -15.04540 -14.84748 -14.65547 -14.04795 -13.87229 -13.78152 -12.88684 -12.75868
 -12.27853 -12.04004 -10.21491  -9.97593  -9.06781  -0.65595  -0.12048   1.07428
   1.10742   2.27413   2.50517   3.25706   3.50387   3.98172   4.17557   4.38430
   4.51537   4.66669   4.89595   4.90442   5.04232   5.32885   5.37680   5.44842
   5.55019   5.67308   5.73066   6.15981


              NET ATOMIC CHARGES AND DIPOLE CONTRIBUTIONS

  ATOM NO.   TYPE          CHARGE      No. of ELECS.   s-Pop       p-Pop       
    1          C          -0.123714        4.1237     1.08515     3.03857
    2          C           0.167502        3.8325     1.07112     2.76138
    3          C           0.146713        3.8533     1.08504     2.76824
    4          C          -0.252380        4.2524     1.07415     3.17823
    5          C          -0.108465        4.1085     1.08139     3.02708
    6          C          -0.173827        4.1738     1.07312     3.10070
    7          C           0.344605        3.6554     1.13383     2.52157
    8          O          -0.426354        6.4264     1.87926     4.54709
    9          O          -0.336740        6.3367     1.86311     4.47363
   10          C          -0.186439        4.1864     1.08836     3.09808
   11          O          -0.442488        6.4425     1.84168     4.60080
   12          H           0.199060        0.8009     0.80094
   13          H           0.164330        0.8357     0.83567
   14          H           0.153762        0.8462     0.84624
   15          H           0.108983        0.8910     0.89102
   16          H           0.156240        0.8438     0.84376
   17          H           0.136720        0.8633     0.86328
   18          H           0.136848        0.8632     0.86315
   19          H           0.335644        0.6644     0.66436
 DIPOLE           X         Y         Z       TOTAL
 POINT-CHG.     3.335     4.773     0.061     5.823
 HYBRID         0.800    -0.510    -0.005     0.949
 SUM            4.135     4.263     0.056     5.939


          ATOMIC ORBITAL ELECTRON POPULATIONS

     Atom    s        px        py        pz   
    1  C   1.08515   0.98267   1.07185   0.98405
    2  C   1.07112   0.93990   0.81534   1.00614
    3  C   1.08504   0.80767   0.98175   0.97882
    4  C   1.07415   1.01999   1.05381   1.10444
    5  C   1.08139   0.99668   1.05200   0.97839
    6  C   1.07312   1.02240   0.98798   1.09032
    7  C   1.13383   0.90548   0.93204   0.68405
    8  O   1.87926   1.71954   1.46480   1.36275
    9  O   1.86311   1.22425   1.35687   1.89250
   10  C   1.08836   1.00967   0.94222   1.14620
   11  O   1.84168   1.36257   1.32970   1.90854
   12  H   0.80094
   13  H   0.83567
   14  H   0.84624
   15  H   0.89102
   16  H   0.84376
   17  H   0.86328
   18  H   0.86315
   19  H   0.66436
 ******************** FINITE-FIELD POLARIZABILITIES ********************

    THE F-F METHOD IS PERFORMED USING BOTH AN ENERGY
    AND DIPOLE MOMENT EXPANSION.  THESE RESULTS ARE
    LISTED BELOW AS "H.o.F." AND "Dipole", RESPECTIVELY.

          MOLECULAR WEIGHT =  152.15



          ROTATIONAL CONSTANTS IN CM(-1)

          A =    0.08226691   B =    0.02302090   C =    0.01805137



           PRINCIPAL MOMENTS OF INERTIA IN UNITS OF 10**(-40)*GRAM-CM**2

          A =      340.2677   B =     1215.9724   C =     1550.7285


 ROTATION MATRIX FOR ORIENTATION OF MOLECULE:

         0.994037   -0.109041   -0.000840
         0.109040    0.994036   -0.001644
         0.001015    0.001542    0.999998


          CARTESIAN COORDINATES 

    NO.       ATOM         X         Y         Z

     1         C       -0.9763   -0.8473    0.0004
     2         C        0.4044   -0.9987   -0.0008
     3         C        1.2486    0.1360   -0.0034
     4         C        0.7031    1.4142   -0.0027
     5         C       -0.6850    1.5619   -0.0008
     6         C       -1.5151    0.4431   -0.0000
     7         C       -2.9844    0.6097    0.0007
     8         O       -3.7385   -0.3340    0.0019
     9         O        2.5718   -0.1797   -0.0132
    10         C        3.4953    0.9004    0.0125
    11         O        0.8750   -2.2723    0.0031
    12         H       -1.6294   -1.7256    0.0023
    13         H        1.3382    2.2950   -0.0042
    14         H       -1.1136    2.5638   -0.0003
    15         H       -3.3784    1.6350    0.0002
    16         H        4.4610    0.3747   -0.0007
    17         H        3.3866    1.5267   -0.8787
    18         H        3.3866    1.4836    0.9324
    19         H        1.8665   -2.2911    0.0093
  SCF CRITERION =    0.1000E-05


 ENERGY OF "REORIENTED" SYSTEM WITHOUT FIELD:      -88.00733 Kcal/mol


 APPLIED ELECTRIC FIELD MAGNITUDE:         0.10284 VOLTS PER ANGSTROM
    Step  1 of 36 done (+X)
    Step  2 of 36 done (-X)
    Step  3 of 36 done (+2X)
    Step  4 of 36 done (-2X)
    Step  5 of 36 done (+Y)
    Step  6 of 36 done (-Y)
    Step  7 of 36 done (+2Y)
    Step  8 of 36 done (-2Y)
    Step  9 of 36 done (+Y+X)
    Step 10 of 36 done (+Y-X)
    Step 11 of 36 done (-Y-X)
    Step 12 of 36 done (-Y+X)
    Step 13 of 36 done (+2Y+2X)
    Step 14 of 36 done (+2Y-2X)
    Step 15 of 36 done (-2Y-2X)
    Step 16 of 36 done (-2Y+2X)
    Step 17 of 36 done (+Z)
    Step 18 of 36 done (-Z)
    Step 19 of 36 done (+2Z)
    Step 20 of 36 done (-2Z)
    Step 21 of 36 done (+Z+X)
    Step 22 of 36 done (+Z-X)
    Step 23 of 36 done (-Z-X)
    Step 24 of 36 done (-Z+X)
    Step 25 of 36 done (+2Z+2X)
    Step 26 of 36 done (+2Z-2X)
    Step 27 of 36 done (-2Z-2X)
    Step 28 of 36 done (-2Z+2X)
    Step 29 of 36 done (+Z+Y)
    Step 30 of 36 done (+Z-Y)
    Step 31 of 36 done (-Z-Y)
    Step 32 of 36 done (-Z+Y)
    Step 33 of 36 done (+2Z+2Y)
    Step 34 of 36 done (+2Z-2Y)
    Step 35 of 36 done (-2Z-2Y)
    Step 36 of 36 done (-2Z+2Y)


 ****************************** DIPOLE ******************************


                     H.o.F.         Dipole

     X             -1.800077      -1.800084
     Y             -1.489684      -1.489642
     X             -0.017843      -0.017860


 MAGNITUDE:         2.336612       2.336591  (A.U.)
                    5.939074       5.939020  (DEBYE)


 ****************************** POLARIZABILITY ********************



 Polarizability Tensor from Heat of Formation:


                     1          2          3
 ------------------------------------------
          1 132.531022
          2   5.787003 114.297419
          3  -0.041547   0.009350  79.932713




    ROOT NO.    1           2           3

            79.93267   112.61583   134.21265
  
         1   0.00084    -0.27904    -0.96028
         2  -0.00041     0.96028    -0.27904
         3   1.00000     0.00063     0.00069

 Polarizability Tensor from Dipole Moment:


                     1          2          3
 ------------------------------------------
          1 132.559412
          2   5.816822 114.332112
          3  -0.038223   0.046928  79.927854




    ROOT NO.    1           2           3

            79.92775   112.63410   134.25753
  
         1   0.00089    -0.28023    -0.95993
         2  -0.00152     0.95993    -0.28023
         3   1.00000     0.00170     0.00043


 Average Polarizability from:     H.o.F         Dipole
                              108.920385     108.939793  A.U.
                               16.139823      16.142699  ANG.**3
                            3.227877D-23   3.228453D-23  ESU

 **********************
 *                    *
 * JOB ENDED NORMALLY *
 *                    *
 **********************



 TOTAL JOB TIME:             0.45 SECONDS

 == MOPAC DONE ==
