 *******************************************************************************
 ** Site#: 32691        For non-commercial use only    Version 19.179W 32BITS **
 *******************************************************************************
 ** Cite this program as: MOPAC2016, Version: 19.179W, James J. P. Stewart,   **
 ** Stewart Computational Chemistry, web: HTTP://OpenMOPAC.net. Days left: 242**
 *******************************************************************************
 **                                                                           **
 **                                MOPAC2016                                  **
 **                                                                           **
 *******************************************************************************

                              PM7 CALCULATION RESULTS

 *******************************************************************************
 *  CALCULATION DONE:                                Tue Oct 29 11:47:24 2019  *
 *  STATIC     - CALCULATE STATIC FIELD POLARIZABILITIES
 *  T=         - A TIME OF 172800.0 SECONDS REQUESTED
 *  DUMP=N     - RESTART FILE WRITTEN EVERY  7200.000 SECONDS
 *  RELSCF     - DEFAULT SCF CRITERION MULTIPLIED BY 0.0100
 *              (DEFAULT SCF CRITERION = 0.00010)
 *******************************************************************************
STATIC RELSCF=0.01
 methyl 4-formylbenzoate.mop

  ATOM    CHEMICAL      BOND LENGTH      BOND ANGLE     TWIST ANGLE 
 NUMBER    SYMBOL       (ANGSTROMS)      (DEGREES)       (DEGREES) 
   (I)                     NA:I           NB:NA:I       NC:NB:NA:I       NA    NB    NC 
     1       C          0.00000000       0.0000000       0.0000000        0     0     0
     2       C          1.34337700  *    0.0000000       0.0000000        1     0     0
     3       C          1.34702200  *  121.1637140  *    0.0000000        2     1     0
     4       C          1.34646000  *  117.7483470  *    0.0000090  *     3     2     1
     5       C          1.34296800  *  121.2040190  *    0.0000140  *     4     3     2
     6       C          1.34498800  *  120.8441230  *   -0.0000220  *     1     2     3
     7       C          1.36101400  *  121.3377380  *  179.9999870  *     6     1     2
     8       O          1.21157800  *  125.8633010  *   -0.0000120  *     7     6     1
     9       C          1.36898200  *  122.0740640  * -179.9999520  *     3     2     1
    10       O          1.37518300  *  120.5055080  *  179.9998310  *     9     3     2
    11       O          1.21635400  *  120.5134340  *   -0.0000090  *     9     3     2
    12       C          1.40829600  *  118.6677730  * -179.9990260  *    10     9     3
    13       H          1.10321500  *  117.8181570  *  179.9999380  *     1     2     3
    14       H          1.10290500  *  116.9331730  * -179.9999610  *     2     1     6
    15       H          1.10304800  *  121.5657570  * -179.9999740  *     4     3     2
    16       H          1.10384500  *  118.0889550  * -179.9999760  *     5     4     3
    17       H          1.11607200  *  115.2359270  * -179.9999900  *     7     6     1
    18       H          1.11294000  *  107.8299990  *  179.9989110  *    12    10     9
    19       H          1.11302500  *  110.2201000  *  -61.6435830  *    12    10     9
    20       H          1.11302500  *  110.2202100  *   61.6414150  *    12    10     9
 


          CARTESIAN COORDINATES 

    NO.       ATOM           X           Y           Z

     1         C          0.0000      0.0000      0.0000
     2         C          1.3434      0.0000      0.0000
     3         C          2.0404      1.1526      0.0000
     4         C          1.3452      2.3057      0.0000
     5         C          0.0022      2.3084      0.0000
     6         C         -0.6896      1.1548      0.0000
     7         C         -2.0505      1.1665      0.0000
     8         O         -2.7688      0.1908     -0.0000
     9         C          3.4093      1.1744     -0.0000
    10         O          4.0884      2.3702     -0.0000
    11         O          4.0434      0.1364     -0.0000
    12         C          5.4965      2.3474     -0.0000
    13         H         -0.5148     -0.9757     -0.0000
    14         H          1.8429     -0.9833     -0.0000
    15         H          1.8519      3.2855     -0.0000
    16         H         -0.5155      3.2833      0.0000
    17         H         -2.5177      2.1801      0.0000
    18         H          5.8544      3.4012     -0.0000
    19         H          5.8731      1.8451      0.9191
    20         H          5.8731      1.8451     -0.9191

 General Reference for PM7:
 "Optimization of Parameters for Semiempirical Methods VI: More Modifications to the 
 NDDO Approximations and Re-optimization of Parameters", J. J. P. Stewart, J. Mol. Mod., 1:32, 19 (2013)
 http://www.springerlink.com/openurl.asp?genre=article&id=doi:10.1007/s00894-012-1667-x

           Empirical Formula: C9 H8 O3  =    20 atoms



      MOLECULAR POINT GROUP   :   Cs  


      RHF CALCULATION, NO. OF DOUBLY OCCUPIED LEVELS = 31


          Geometry optimization using EF
  SCF CRITERION =    0.1000E-05

          DIAGONAL MATRIX USED AS START HESSIAN

 CYCLE:     1 TIME:   0.031 TIME LEFT:  2.00D  GRAD.:   560.885 HEAT: -54.16284
 CYCLE:     2 TIME:   0.062 TIME LEFT:  2.00D  GRAD.:   398.131 HEAT: -61.51541
 CYCLE:     3 TIME:   0.016 TIME LEFT:  2.00D  GRAD.:   202.993 HEAT: -74.61480
 CYCLE:     4 TIME:   0.016 TIME LEFT:  2.00D  GRAD.:    62.560 HEAT: -84.61366
 CYCLE:     5 TIME:   0.016 TIME LEFT:  2.00D  GRAD.:    49.971 HEAT: -86.98091
 CYCLE:     6 TIME:   0.031 TIME LEFT:  2.00D  GRAD.:    59.161 HEAT: -87.49814
 CYCLE:     7 TIME:   0.031 TIME LEFT:  2.00D  GRAD.:    72.983 HEAT: -88.16787
 CYCLE:     8 TIME:   0.016 TIME LEFT:  2.00D  GRAD.:    43.664 HEAT: -88.46960
 CYCLE:     9 TIME:   0.031 TIME LEFT:  2.00D  GRAD.:    11.375 HEAT: -88.61769
 CYCLE:    10 TIME:   0.047 TIME LEFT:  2.00D  GRAD.:    11.427 HEAT: -88.62517
 CYCLE:    11 TIME:   0.016 TIME LEFT:  2.00D  GRAD.:     8.422 HEAT: -88.66236
 CYCLE:    12 TIME:   0.016 TIME LEFT:  2.00D  GRAD.:     2.015 HEAT: -88.66726
 CYCLE:    13 TIME:   0.016 TIME LEFT:  2.00D  GRAD.:     1.560 HEAT: -88.66924
 CYCLE:    14 TIME:   0.000 TIME LEFT:  2.00D  GRAD.:     0.652 HEAT: -88.66994

     GRADIENT =  0.65246 IS LESS THAN CUTOFF =  1.00000



 -------------------------------------------------------------------------------
 STATIC RELSCF=0.01
 methyl 4-formylbenzoate.mop



     GEOMETRY OPTIMISED USING EIGENVECTOR FOLLOWING (EF).     
     SCF FIELD WAS ACHIEVED                                   


                              PM7 CALCULATION
                                                       MOPAC2016 (Version: 19.179W)
                                                       Tue Oct 29 11:47:24 2019
                                                       No. of days remaining = 242




          FINAL HEAT OF FORMATION =        -88.66994 KCAL/MOL =    -370.99505 KJ/MOL


          TOTAL ENERGY            =      -2098.81701 EV
          ELECTRONIC ENERGY       =     -10158.05651 EV  POINT GROUP:     Cs  
          CORE-CORE REPULSION     =       8059.23950 EV
          COSMO AREA              =        194.27 SQUARE ANGSTROMS
          COSMO VOLUME            =        192.07 CUBIC ANGSTROMS

          GRADIENT NORM           =          0.65246 = 0.14589 PER ATOM
          IONIZATION POTENTIAL    =         10.456169 EV
          HOMO LUMO ENERGIES (EV) =        -10.456 -1.315
          NO. OF FILLED LEVELS    =         31
          MOLECULAR WEIGHT        =        164.1604

          MOLECULAR DIMENSIONS (Angstroms)

            Atom       Atom       Distance
            H    18    O     8     9.15654
            H    16    H    14     4.92991
            H    20    H    19     1.79926


          SCF CALCULATIONS        =         18
 
          WALL-CLOCK TIME         =          0.359 SECONDS
          COMPUTATION TIME        =          0.640 SECONDS




  ATOM    CHEMICAL      BOND LENGTH      BOND ANGLE     TWIST ANGLE 
 NUMBER    SYMBOL       (ANGSTROMS)      (DEGREES)       (DEGREES) 
   (I)                     NA:I           NB:NA:I       NC:NB:NA:I       NA    NB    NC 
     1       C          0.00000000       0.0000000       0.0000000        0     0     0
     2       C          1.39284362  *    0.0000000       0.0000000        1     0     0
     3       C          1.39657181  *  119.4944935  *    0.0000000        2     1     0
     4       C          1.39620573  *  120.8081794  *    0.0036273  *     3     2     1
     5       C          1.39214584  *  119.5480047  *   -0.0082455  *     4     3     2
     6       C          1.39509108  *  119.7924860  *   -0.0136061  *     1     2     3
     7       C          1.48393188  *  119.4913455  * -179.9922559  *     6     1     2
     8       O          1.20720086  *  121.7265575  *    0.0110225  *     7     6     1
     9       C          1.47729449  *  117.6889750  * -179.9790772  *     3     2     1
    10       O          1.35894691  *  110.9575625  * -179.9817132  *     9     3     2
    11       O          1.20493479  *  126.8331722  *    0.0131260  *     9     3     2
    12       C          1.42506839  *  115.7097620  * -179.9673958  *    10     9     3
    13       H          1.09420232  *  120.5734357  *  179.9946172  *     1     2     3
    14       H          1.09418254  *  120.6049927  *  179.9985371  *     2     1     6
    15       H          1.09226962  *  120.2435718  *  179.9972864  *     4     3     2
    16       H          1.08954797  *  119.7957740  *  179.9956062  *     5     4     3
    17       H          1.09816254  *  117.6496726  * -179.9927148  *     7     6     1
    18       H          1.09614899  *  102.8456159  * -179.9871752  *    12    10     9
    19       H          1.09541929  *  110.1839560  *  -61.0261078  *    12    10     9
    20       H          1.09539971  *  110.1755546  *   61.0599848  *    12    10     9

                             CARTESIAN COORDINATES

   1    C        0.000000000     0.000000000     0.000000000
   2    C        1.392843616     0.000000000     0.000000000
   3    C        2.080431656     1.215580314     0.000000000
   4    C        1.388726006     2.428400878     0.000075919
   5    C       -0.003415103     2.424772727    -0.000021770
   6    C       -0.693165168     1.210702721     0.000287506
   7    C       -2.177076546     1.202903335     0.000460234
   8    O       -2.806496828     0.172775180     0.000556152
   9    C        3.556992639     1.169035198    -0.000477689
  10    O        4.082798547     2.422137202    -0.000014485
  11    O        4.248591013     0.182344188    -0.001095846
  12    C        5.505982249     2.495395616    -0.001146643
  13    H       -0.556557574    -0.942084058    -0.000088506
  14    H        1.949909910    -0.941760335    -0.000199595
  15    H        1.935836265     3.373770265     0.000119928
  16    H       -0.547284662     3.368870532     0.000109455
  17    H       -2.691800060     2.172965523     0.000562140
  18    H        5.694422497     3.575225296    -0.000287938
  19    H        5.909792399     2.016790428     0.897640236
  20    H        5.908110749     2.018589262    -0.901618128


           Empirical Formula: C9 H8 O3  =    20 atoms



      MOLECULAR POINT GROUP   :   Cs  


                  EIGENVALUES  
 -31.77065 -31.53184 -31.01260 -30.26483 -27.62443 -26.65542 -25.27940 -23.70046
 -21.93918 -20.99291 -20.20180 -18.45800 -16.92415 -16.86779 -16.52357 -15.86343
 -15.53857 -14.98521 -14.97734 -14.80169 -14.34054 -14.28119 -13.39977 -13.38098
 -13.03699 -12.52975 -11.42969 -11.10426 -10.55445 -10.54049 -10.45617  -1.31521
  -0.37193   0.41396   1.25106   1.37619   2.10418   2.86802   3.20992   3.56401
   3.84522   4.05438   4.30545   4.39433   4.47844   4.69727   4.95851   5.06324
   5.16456   5.21547   5.28341   5.37151   5.56402   5.67214   5.77422   5.88183


              NET ATOMIC CHARGES AND DIPOLE CONTRIBUTIONS

  ATOM NO.   TYPE          CHARGE      No. of ELECS.   s-Pop       p-Pop       
    1          C          -0.101388        4.1014     1.09027     3.01112
    2          C          -0.106321        4.1063     1.09162     3.01470
    3          C          -0.108417        4.1084     1.07301     3.03541
    4          C          -0.103155        4.1032     1.08791     3.01524
    5          C          -0.138403        4.1384     1.08538     3.05303
    6          C          -0.125039        4.1250     1.08355     3.04149
    7          C           0.327368        3.6726     1.13816     2.53447
    8          O          -0.412564        6.4126     1.87946     4.53310
    9          C           0.587340        3.4127     1.11161     2.30105
   10          O          -0.407373        6.4074     1.86671     4.54066
   11          O          -0.486034        6.4860     1.87803     4.60801
   12          C          -0.165971        4.1660     1.08681     3.07916
   13          H           0.180453        0.8195     0.81955
   14          H           0.181184        0.8188     0.81882
   15          H           0.173359        0.8266     0.82664
   16          H           0.157805        0.8422     0.84219
   17          H           0.115057        0.8849     0.88494
   18          H           0.146410        0.8536     0.85359
   19          H           0.142864        0.8571     0.85714
   20          H           0.142825        0.8572     0.85718
 DIPOLE           X         Y         Z       TOTAL
 POINT-CHG.     0.849     3.728    -0.001     3.823
 HYBRID         0.107    -0.185     0.000     0.214
 SUM            0.956     3.543    -0.001     3.670


          ATOMIC ORBITAL ELECTRON POPULATIONS

     Atom    s        px        py        pz   
    1  C   1.09027   1.00061   1.06129   0.94922
    2  C   1.09162   1.00883   1.05457   0.95131
    3  C   1.07301   0.97339   1.00535   1.05666
    4  C   1.08791   1.00359   1.05590   0.95576
    5  C   1.08538   1.01165   1.05149   0.98988
    6  C   1.08355   1.01738   0.99694   1.02717
    7  C   1.13816   0.91203   0.93491   0.68754
    8  O   1.87946   1.72998   1.45328   1.34984
    9  C   1.11161   0.85992   0.75966   0.68147
   10  O   1.86671   1.30081   1.39462   1.84524
   11  O   1.87803   1.66414   1.44467   1.49920
   12  C   1.08681   0.77837   1.14189   1.15890
   13  H   0.81955
   14  H   0.81882
   15  H   0.82664
   16  H   0.84219
   17  H   0.88494
   18  H   0.85359
   19  H   0.85714
   20  H   0.85718
 ******************** FINITE-FIELD POLARIZABILITIES ********************

    THE F-F METHOD IS PERFORMED USING BOTH AN ENERGY
    AND DIPOLE MOMENT EXPANSION.  THESE RESULTS ARE
    LISTED BELOW AS "H.o.F." AND "Dipole", RESPECTIVELY.

          MOLECULAR WEIGHT =  164.16



          ROTATIONAL CONSTANTS IN CM(-1)

          A =    0.11017262   B =    0.01460041   C =    0.01292418



           PRINCIPAL MOMENTS OF INERTIA IN UNITS OF 10**(-40)*GRAM-CM**2

          A =      254.0811   B =     1917.2595   C =     2165.9224


 ROTATION MATRIX FOR ORIENTATION OF MOLECULE:

         0.988343   -0.152241    0.000193
         0.152241    0.988343   -0.000104
        -0.000175    0.000132    1.000000


          CARTESIAN COORDINATES 

    NO.       ATOM         X         Y         Z

     1         C       -1.6284   -1.0132   -0.0000
     2         C       -0.2518   -1.2253    0.0003
     3         C        0.6129   -0.1285    0.0003
     4         C        0.1139    1.1755    0.0001
     5         C       -1.2626    1.3838   -0.0003
     6         C       -2.1291    0.2889    0.0000
     7         C       -3.5969    0.5071   -0.0001
     8         O       -4.3758   -0.4152   -0.0000
     9         C        2.0651   -0.3993    0.0001
    10         O        2.7756    0.7591    0.0005
    11         O        2.5985   -1.4798   -0.0003
    12         C        4.1933    0.6148   -0.0004
    13         H       -2.3219   -1.8596   -0.0001
    14         H        0.1554   -2.2409    0.0003
    15         H        0.7985    2.0265    0.0001
    16         H       -1.6564    2.3997   -0.0004
    17         H       -3.9580    1.5442   -0.0002
    18         H        4.5440    1.6534    0.0004
    19         H        4.5194    0.0805    0.8986
    20         H        4.5184    0.0823   -0.9007
  SCF CRITERION =    0.1000E-05


 ENERGY OF "REORIENTED" SYSTEM WITHOUT FIELD:      -88.66994 Kcal/mol


 APPLIED ELECTRIC FIELD MAGNITUDE:         0.10284 VOLTS PER ANGSTROM
    Step  1 of 36 done (+X)
    Step  2 of 36 done (-X)
    Step  3 of 36 done (+2X)
    Step  4 of 36 done (-2X)
    Step  5 of 36 done (+Y)
    Step  6 of 36 done (-Y)
    Step  7 of 36 done (+2Y)
    Step  8 of 36 done (-2Y)
    Step  9 of 36 done (+Y+X)
    Step 10 of 36 done (+Y-X)
    Step 11 of 36 done (-Y-X)
    Step 12 of 36 done (-Y+X)
    Step 13 of 36 done (+2Y+2X)
    Step 14 of 36 done (+2Y-2X)
    Step 15 of 36 done (-2Y-2X)
    Step 16 of 36 done (-2Y+2X)
    Step 17 of 36 done (+Z)
    Step 18 of 36 done (-Z)
    Step 19 of 36 done (+2Z)
    Step 20 of 36 done (-2Z)
    Step 21 of 36 done (+Z+X)
    Step 22 of 36 done (+Z-X)
    Step 23 of 36 done (-Z-X)
    Step 24 of 36 done (-Z+X)
    Step 25 of 36 done (+2Z+2X)
    Step 26 of 36 done (+2Z-2X)
    Step 27 of 36 done (-2Z-2X)
    Step 28 of 36 done (-2Z+2X)
    Step 29 of 36 done (+Z+Y)
    Step 30 of 36 done (+Z-Y)
    Step 31 of 36 done (-Z-Y)
    Step 32 of 36 done (-Z+Y)
    Step 33 of 36 done (+2Z+2Y)
    Step 34 of 36 done (+2Z-2Y)
    Step 35 of 36 done (-2Z-2Y)
    Step 36 of 36 done (-2Z+2Y)


 ****************************** DIPOLE ******************************


                     H.o.F.         Dipole

     X             -0.584042      -0.583867
     Y             -1.320386      -1.320278
     X              0.000401       0.000390


 MAGNITUDE:         1.443788       1.443619  (A.U.)
                    3.669744       3.669313  (DEBYE)


 ****************************** POLARIZABILITY ********************



 Polarizability Tensor from Heat of Formation:


                     1          2          3
 ------------------------------------------
          1 142.348620
          2   3.884227 123.370106
          3  -0.000179   0.001016  87.042567




    ROOT NO.    1           2           3

            87.04257   122.60591   143.11281
  
         1   0.00001    -0.19304    -0.98119
         2  -0.00003     0.98119    -0.19304
         3   1.00000     0.00003    -0.00000

 Polarizability Tensor from Dipole Moment:


                     1          2          3
 ------------------------------------------
          1 142.332525
          2   3.909102 123.343464
          3   0.016056   0.027035  87.039096




    ROOT NO.    1           2           3

            87.03907   122.57024   143.10578
  
         1  -0.00024    -0.19405    -0.98099
         2  -0.00072     0.98099    -0.19405
         3   1.00000     0.00066    -0.00037


 Average Polarizability from:     H.o.F         Dipole
                              117.587098     117.571695  A.U.
                               17.424056      17.421774  ANG.**3
                            3.484717D-23   3.484261D-23  ESU

 **********************
 *                    *
 * JOB ENDED NORMALLY *
 *                    *
 **********************



 TOTAL JOB TIME:             0.50 SECONDS

 == MOPAC DONE ==
