 *******************************************************************************
 ** Site#: 32691        For non-commercial use only    Version 19.179W 32BITS **
 *******************************************************************************
 ** Cite this program as: MOPAC2016, Version: 19.179W, James J. P. Stewart,   **
 ** Stewart Computational Chemistry, web: HTTP://OpenMOPAC.net. Days left: 242**
 *******************************************************************************
 **                                                                           **
 **                                MOPAC2016                                  **
 **                                                                           **
 *******************************************************************************

                              PM7 CALCULATION RESULTS

 *******************************************************************************
 *  CALCULATION DONE:                                Tue Oct 29 11:38:49 2019  *
 *  STATIC     - CALCULATE STATIC FIELD POLARIZABILITIES
 *  T=         - A TIME OF 172800.0 SECONDS REQUESTED
 *  DUMP=N     - RESTART FILE WRITTEN EVERY  7200.000 SECONDS
 *  RELSCF     - DEFAULT SCF CRITERION MULTIPLIED BY 0.0100
 *              (DEFAULT SCF CRITERION = 0.00010)
 *******************************************************************************
STATIC RELSCF=0.01
 o-vanillin2.mop

  ATOM    CHEMICAL      BOND LENGTH      BOND ANGLE     TWIST ANGLE 
 NUMBER    SYMBOL       (ANGSTROMS)      (DEGREES)       (DEGREES) 
   (I)                     NA:I           NB:NA:I       NC:NB:NA:I       NA    NB    NC 
     1       C          0.00000000       0.0000000       0.0000000        0     0     0
     2       C          1.34701000  *    0.0000000       0.0000000        1     0     0
     3       C          1.33810800  *  121.6165600  *    0.0000000        2     1     0
     4       C          1.33781200  *  119.4193260  *   -0.0201810  *     3     2     1
     5       C          1.34651600  *  120.6710410  *    0.0009700  *     4     3     2
     6       C          1.35595000  *  118.4937050  *    0.0421620  *     1     2     3
     7       O          1.36656700  *  116.3965180  *  179.9614540  *     6     1     2
     8       O          1.37762300  *  123.7853690  *  179.9611370  *     1     2     3
     9       C          1.40904700  *  119.3111920  *   -0.4115220  *     8     1     2
    10       C          1.36342700  *  117.1518740  *  179.9961690  *     5     4     3
    11       O          1.20949100  *  127.2962060  * -179.9774250  *    10     5     4
    12       H          1.10110300  *  121.6801780  * -179.9717420  *     2     1     6
    13       H          1.10328400  *  120.3203940  *  179.9826650  *     3     2     1
    14       H          1.10385200  *  117.1985460  * -179.9976560  *     4     3     2
    15       H          0.96433100  *  114.4559940  * -179.9866410  *     7     6     1
    16       H          1.11325100  *  107.7126680  * -179.8278270  *     9     8     1
    17       H          1.11289200  *  110.4183970  *  -62.0641790  *     9     8     1
    18       H          1.11287000  *  110.4362860  *   62.4185390  *     9     8     1
    19       H          1.11686900  *  115.4581100  *    0.0149660  *    10     5     4
 


          CARTESIAN COORDINATES 

    NO.       ATOM           X           Y           Z

     1         C          0.0000      0.0000      0.0000
     2         C          1.3470      0.0000      0.0000
     3         C          2.0485      1.1395      0.0000
     4         C          1.4006      2.3100     -0.0004
     5         C          0.0547      2.3501     -0.0008
     6         C         -0.6469      1.1917     -0.0009
     7         O         -2.0125      1.1417     -0.0017
     8         O         -0.7661     -1.1450     -0.0008
     9         C         -0.1285     -2.4015     -0.0105
    10         C         -0.5311      3.5813     -0.0011
    11         O         -1.7148      3.8297     -0.0011
    12         H          1.9253     -0.9370      0.0002
    13         H          3.1515      1.1145      0.0003
    14         H          2.0153      3.2269     -0.0004
    15         H         -2.4436      2.0043     -0.0025
    16         H         -0.9210     -3.1834     -0.0126
    17         H          0.4774     -2.5223     -0.9361
    18         H          0.4834     -2.5339      0.9096
    19         H          0.1733      4.4480     -0.0013

 General Reference for PM7:
 "Optimization of Parameters for Semiempirical Methods VI: More Modifications to the 
 NDDO Approximations and Re-optimization of Parameters", J. J. P. Stewart, J. Mol. Mod., 1:32, 19 (2013)
 http://www.springerlink.com/openurl.asp?genre=article&id=doi:10.1007/s00894-012-1667-x

           Empirical Formula: C8 H8 O3  =    19 atoms



      MOLECULAR POINT GROUP   :   Cs  


      RHF CALCULATION, NO. OF DOUBLY OCCUPIED LEVELS = 29


          Geometry optimization using EF
  SCF CRITERION =    0.1000E-05

          DIAGONAL MATRIX USED AS START HESSIAN

 CYCLE:     1 TIME:   0.031 TIME LEFT:  2.00D  GRAD.:   455.711 HEAT: -64.69991
 CYCLE:     2 TIME:   0.125 TIME LEFT:  2.00D  GRAD.:   426.942 HEAT: -68.30624
 CYCLE:     3 TIME:   0.016 TIME LEFT:  2.00D  GRAD.:   182.875 HEAT: -81.05829
 CYCLE:     4 TIME:   0.016 TIME LEFT:  2.00D  GRAD.:   106.322 HEAT: -88.22143
 CYCLE:     5 TIME:   0.031 TIME LEFT:  2.00D  GRAD.:   114.278 HEAT: -89.01790
 CYCLE:     6 TIME:   0.016 TIME LEFT:  2.00D  GRAD.:    28.988 HEAT: -90.38702
 CYCLE:     7 TIME:   0.016 TIME LEFT:  2.00D  GRAD.:    30.017 HEAT: -90.72626
 CYCLE:     8 TIME:   0.016 TIME LEFT:  2.00D  GRAD.:    40.803 HEAT: -90.86458
 CYCLE:     9 TIME:   0.031 TIME LEFT:  2.00D  GRAD.:    23.116 HEAT: -90.88165
 CYCLE:    10 TIME:   0.016 TIME LEFT:  2.00D  GRAD.:    43.233 HEAT: -90.91358
 CYCLE:    11 TIME:   0.016 TIME LEFT:  2.00D  GRAD.:     5.376 HEAT: -91.02313
 CYCLE:    12 TIME:   0.016 TIME LEFT:  2.00D  GRAD.:     4.772 HEAT: -91.03211
 CYCLE:    13 TIME:   0.016 TIME LEFT:  2.00D  GRAD.:     1.208 HEAT: -91.03556
 CYCLE:    14 TIME:   0.016 TIME LEFT:  2.00D  GRAD.:     0.917 HEAT: -91.03666

     GRADIENT =  0.91723 IS LESS THAN CUTOFF =  1.00000



 -------------------------------------------------------------------------------
 STATIC RELSCF=0.01
 o-vanillin2.mop



     GEOMETRY OPTIMISED USING EIGENVECTOR FOLLOWING (EF).     
     SCF FIELD WAS ACHIEVED                                   


                              PM7 CALCULATION
                                                       MOPAC2016 (Version: 19.179W)
                                                       Tue Oct 29 11:38:49 2019
                                                       No. of days remaining = 242




          FINAL HEAT OF FORMATION =        -91.03666 KCAL/MOL =    -380.89740 KJ/MOL


          TOTAL ENERGY            =      -1975.72794 EV
          ELECTRONIC ENERGY       =      -9525.04463 EV  POINT GROUP:     Cs  
          CORE-CORE REPULSION     =       7549.31668 EV
          COSMO AREA              =        177.36 SQUARE ANGSTROMS
          COSMO VOLUME            =        175.30 CUBIC ANGSTROMS

          GRADIENT NORM           =          0.91723 = 0.21043 PER ATOM
          IONIZATION POTENTIAL    =          8.839634 EV
          HOMO LUMO ENERGIES (EV) =         -8.840 -0.831
          NO. OF FILLED LEVELS    =         29
          MOLECULAR WEIGHT        =        152.1494

          MOLECULAR DIMENSIONS (Angstroms)

            Atom       Atom       Distance
            H    19    H    16     7.74848
            H    15    H    13     5.69176
            H    17    H    18     1.81022


          SCF CALCULATIONS        =         18
 
          WALL-CLOCK TIME         =          0.406 SECONDS
          COMPUTATION TIME        =          0.608 SECONDS




  ATOM    CHEMICAL      BOND LENGTH      BOND ANGLE     TWIST ANGLE 
 NUMBER    SYMBOL       (ANGSTROMS)      (DEGREES)       (DEGREES) 
   (I)                     NA:I           NB:NA:I       NC:NB:NA:I       NA    NB    NC 
     1       C          0.00000000       0.0000000       0.0000000        0     0     0
     2       C          1.37823199  *    0.0000000       0.0000000        1     0     0
     3       C          1.41022526  *  119.9419944  *    0.0000000        2     1     0
     4       C          1.37676701  *  120.6274605  *    0.0007031  *     3     2     1
     5       C          1.41159091  *  120.5273765  *   -0.0050779  *     4     3     2
     6       C          1.43209071  *  119.7132100  *   -0.0063139  *     1     2     3
     7       O          1.33726369  *  116.3261138  * -179.9974557  *     6     1     2
     8       O          1.35882985  *  126.9947584  * -179.9439369  *     1     2     3
     9       C          1.42240064  *  116.2881125  *   -0.3995735  *     8     1     2
    10       C          1.46169973  *  119.8538375  * -179.9996079  *     5     4     3
    11       O          1.21815637  *  122.0891502  * -179.9940258  *    10     5     4
    12       H          1.08731317  *  121.2763216  *  179.9936595  *     2     1     6
    13       H          1.08792856  *  118.8105047  * -179.9983941  *     3     2     1
    14       H          1.08961017  *  120.2990293  *  179.9994560  *     4     3     2
    15       H          1.02077341  *  110.3002840  *  179.9898413  *     7     6     1
    16       H          1.09978941  *  101.7047002  * -179.8419115  *     9     8     1
    17       H          1.09388708  *  111.1700668  *  -62.3768483  *     9     8     1
    18       H          1.09390370  *  111.1639866  *   62.6926700  *     9     8     1
    19       H          1.09855242  *  118.5294594  *    0.0082499  *    10     5     4

                             CARTESIAN COORDINATES

   1    C        0.000000000     0.000000000     0.000000000
   2    C        1.378231989     0.000000000     0.000000000
   3    C        2.082107838     1.222004125     0.000000000
   4    C        1.405608397     2.421102075     0.000014539
   5    C       -0.005723871     2.448122963    -0.000078049
   6    C       -0.709828541     1.243795486     0.000137063
   7    O       -2.044756239     1.164787863     0.000181581
   8    O       -0.817664935    -1.085284055     0.001061935
   9    C       -0.178198205    -2.355814398    -0.006588538
  10    C       -0.708941722     3.729548251    -0.000069874
  11    O       -1.925038633     3.800352506    -0.000040008
  12    H        1.942727965    -0.929297708     0.000000432
  13    H        3.169824263     1.200520867    -0.000026718
  14    H        1.954861157     3.362150278     0.000023394
  15    H       -2.454847952     2.099562200     0.000449576
  16    H       -1.039843149    -3.039264905    -0.006959975
  17    H        0.416825226    -2.493134404    -0.914156314
  18    H        0.422429324    -2.501099498     0.896054306
  19    H       -0.115241055     4.653851732    -0.000129821


           Empirical Formula: C8 H8 O3  =    19 atoms



      MOLECULAR POINT GROUP   :   Cs  


                  EIGENVALUES  
 -31.73123 -31.02290 -30.35949 -30.08723 -26.65338 -26.00531 -24.71769 -23.08531
 -21.28452 -20.69657 -18.29275 -17.75989 -16.84258 -16.16396 -15.99700 -15.66907
 -15.06647 -15.04203 -14.61757 -13.98220 -13.79355 -13.27122 -12.80925 -12.69615
 -12.33661 -11.90065 -10.58960 -10.02100  -8.83963  -0.83067   0.10535   0.83830
   1.50820   2.21879   2.50144   3.12774   3.68704   3.83678   4.25618   4.41420
   4.48919   4.71956   4.79806   5.03982   5.17193   5.25186   5.38222   5.64203
   5.72745   5.80896   5.93477   5.98348


              NET ATOMIC CHARGES AND DIPOLE CONTRIBUTIONS

  ATOM NO.   TYPE          CHARGE      No. of ELECS.   s-Pop       p-Pop       
    1          C           0.113978        3.8860     1.08051     2.80551
    2          C          -0.206355        4.2064     1.07977     3.12658
    3          C          -0.178660        4.1787     1.07478     3.10388
    4          C          -0.098258        4.0983     1.07899     3.01927
    5          C          -0.325679        4.3257     1.06421     3.26147
    6          C           0.310744        3.6893     1.08315     2.60611
    7          O          -0.430313        6.4303     1.84643     4.58389
    8          O          -0.252983        6.2530     1.87211     4.38088
    9          C          -0.219798        4.2198     1.08806     3.13174
   10          C           0.389014        3.6110     1.13269     2.47830
   11          O          -0.495808        6.4958     1.87872     4.61709
   12          H           0.162965        0.8370     0.83703
   13          H           0.155623        0.8444     0.84438
   14          H           0.152059        0.8479     0.84794
   15          H           0.372702        0.6273     0.62730
   16          H           0.159626        0.8404     0.84037
   17          H           0.134126        0.8659     0.86587
   18          H           0.134065        0.8659     0.86594
   19          H           0.122952        0.8770     0.87705
 DIPOLE           X         Y         Z       TOTAL
 POINT-CHG.     4.400    -1.262    -0.011     4.577
 HYBRID        -0.864    -0.013     0.001     0.864
 SUM            3.535    -1.276    -0.010     3.758


          ATOMIC ORBITAL ELECTRON POPULATIONS

     Atom    s        px        py        pz   
    1  C   1.08051   0.93165   0.86565   1.00821
    2  C   1.07977   0.99969   1.07305   1.05384
    3  C   1.07478   1.08267   0.97416   1.04704
    4  C   1.07899   0.98096   1.05822   0.98009
    5  C   1.06421   1.01756   1.01616   1.22775
    6  C   1.08315   0.80055   0.94411   0.86145
    7  O   1.84643   1.25340   1.48145   1.84904
    8  O   1.87211   1.31573   1.18316   1.88199
    9  C   1.08806   1.12088   0.86705   1.14380
   10  C   1.13269   0.85564   0.97198   0.65068
   11  O   1.87872   1.27955   1.90764   1.42991
   12  H   0.83703
   13  H   0.84438
   14  H   0.84794
   15  H   0.62730
   16  H   0.84037
   17  H   0.86587
   18  H   0.86594
   19  H   0.87705
 ******************** FINITE-FIELD POLARIZABILITIES ********************

    THE F-F METHOD IS PERFORMED USING BOTH AN ENERGY
    AND DIPOLE MOMENT EXPANSION.  THESE RESULTS ARE
    LISTED BELOW AS "H.o.F." AND "Dipole", RESPECTIVELY.

          MOLECULAR WEIGHT =  152.15



          ROTATIONAL CONSTANTS IN CM(-1)

          A =    0.06652283   B =    0.02935377   C =    0.02044838



           PRINCIPAL MOMENTS OF INERTIA IN UNITS OF 10**(-40)*GRAM-CM**2

          A =      420.7995   B =      953.6347   C =     1368.9482


 ROTATION MATRIX FOR ORIENTATION OF MOLECULE:

         0.211355    0.977409   -0.000072
        -0.977409    0.211355   -0.000584
        -0.000555    0.000194    1.000000


          CARTESIAN COORDINATES 

    NO.       ATOM         X         Y         Z

     1         C        1.1319   -0.0224    0.0012
     2         C        1.4232    1.3247    0.0011
     3         C        0.3776    2.2710    0.0003
     4         C       -0.9374    1.8632   -0.0003
     5         C       -1.2621    0.4894   -0.0003
     6         C       -0.2338   -0.4533    0.0007
     7         O       -0.4387   -1.7748    0.0008
     8         O        2.0199   -1.0510    0.0029
     9         C        3.3968   -0.6945   -0.0040
    10         C       -2.6632    0.0730   -0.0010
    11         O       -2.9895   -1.1007   -0.0009
    12         H        2.4508    1.6800    0.0016
    13         H        0.6285    3.3296    0.0002
    14         H       -1.7411    2.5989   -0.0009
    15         H       -1.4391   -1.9780    0.0006
    16         H        3.8827   -1.6811   -0.0039
    17         H        3.6573   -0.1421   -0.9115
    18         H        3.6653   -0.1379    0.8987
    19         H       -3.4412    0.8486   -0.0016
  SCF CRITERION =    0.1000E-05


 ENERGY OF "REORIENTED" SYSTEM WITHOUT FIELD:      -91.03666 Kcal/mol


 APPLIED ELECTRIC FIELD MAGNITUDE:         0.10284 VOLTS PER ANGSTROM
    Step  1 of 36 done (+X)
    Step  2 of 36 done (-X)
    Step  3 of 36 done (+2X)
    Step  4 of 36 done (-2X)
    Step  5 of 36 done (+Y)
    Step  6 of 36 done (-Y)
    Step  7 of 36 done (+2Y)
    Step  8 of 36 done (-2Y)
    Step  9 of 36 done (+Y+X)
    Step 10 of 36 done (+Y-X)
    Step 11 of 36 done (-Y-X)
    Step 12 of 36 done (-Y+X)
    Step 13 of 36 done (+2Y+2X)
    Step 14 of 36 done (+2Y-2X)
    Step 15 of 36 done (-2Y-2X)
    Step 16 of 36 done (-2Y+2X)
    Step 17 of 36 done (+Z)
    Step 18 of 36 done (-Z)
    Step 19 of 36 done (+2Z)
    Step 20 of 36 done (-2Z)
    Step 21 of 36 done (+Z+X)
    Step 22 of 36 done (+Z-X)
    Step 23 of 36 done (-Z-X)
    Step 24 of 36 done (-Z+X)
    Step 25 of 36 done (+2Z+2X)
    Step 26 of 36 done (+2Z-2X)
    Step 27 of 36 done (-2Z-2X)
    Step 28 of 36 done (-2Z+2X)
    Step 29 of 36 done (+Z+Y)
    Step 30 of 36 done (+Z-Y)
    Step 31 of 36 done (-Z-Y)
    Step 32 of 36 done (-Z+Y)
    Step 33 of 36 done (+2Z+2Y)
    Step 34 of 36 done (+2Z-2Y)
    Step 35 of 36 done (-2Z-2Y)
    Step 36 of 36 done (-2Z+2Y)


 ****************************** DIPOLE ******************************


                     H.o.F.         Dipole

     X             -0.784483      -0.784450
     Y             -1.253444      -1.253078
     X              0.003642       0.003561


 MAGNITUDE:         1.478698       1.478370  (A.U.)
                    3.758476       3.757642  (DEBYE)


 ****************************** POLARIZABILITY ********************



 Polarizability Tensor from Heat of Formation:


                     1          2          3
 ------------------------------------------
          1 124.752753
          2   0.551416 121.524530
          3   0.017558  -0.018584  80.003043




    ROOT NO.    1           2           3

            80.00303   121.43295   124.84435
  
         1  -0.00040    -0.16385    -0.98648
         2   0.00045     0.98648    -0.16385
         3   1.00000    -0.00051    -0.00032

 Polarizability Tensor from Dipole Moment:


                     1          2          3
 ------------------------------------------
          1 124.763383
          2   0.573904 121.515447
          3   0.075146  -0.129705  79.986212




    ROOT NO.    1           2           3

            79.98567   121.41750   124.86187
  
         1  -0.00172    -0.16898    -0.98562
         2   0.00315     0.98561    -0.16899
         3   0.99999    -0.00339    -0.00116


 Average Polarizability from:     H.o.F         Dipole
                              108.760108     108.755014  A.U.
                               16.116073      16.115318  ANG.**3
                            3.223128D-23   3.222977D-23  ESU

 **********************
 *                    *
 * JOB ENDED NORMALLY *
 *                    *
 **********************



 TOTAL JOB TIME:             0.52 SECONDS

 == MOPAC DONE ==
