 *******************************************************************************
 ** Site#: 32691        For non-commercial use only    Version 19.179W 32BITS **
 *******************************************************************************
 ** Cite this program as: MOPAC2016, Version: 19.179W, James J. P. Stewart,   **
 ** Stewart Computational Chemistry, web: HTTP://OpenMOPAC.net. Days left: 242**
 *******************************************************************************
 **                                                                           **
 **                                MOPAC2016                                  **
 **                                                                           **
 *******************************************************************************

                              PM7 CALCULATION RESULTS

 *******************************************************************************
 *  CALCULATION DONE:                                Tue Oct 29 11:34:04 2019  *
 *  STATIC     - CALCULATE STATIC FIELD POLARIZABILITIES
 *  T=         - A TIME OF 172800.0 SECONDS REQUESTED
 *  DUMP=N     - RESTART FILE WRITTEN EVERY  7200.000 SECONDS
 *  RELSCF     - DEFAULT SCF CRITERION MULTIPLIED BY 0.0100
 *              (DEFAULT SCF CRITERION = 0.00010)
 *******************************************************************************
STATIC RELSCF=0.01
 Vanillin.mop

  ATOM    CHEMICAL      BOND LENGTH      BOND ANGLE     TWIST ANGLE 
 NUMBER    SYMBOL       (ANGSTROMS)      (DEGREES)       (DEGREES) 
   (I)                     NA:I           NB:NA:I       NC:NB:NA:I       NA    NB    NC 
     1       C          0.00000000       0.0000000       0.0000000        0     0     0
     2       C          1.34282500  *    0.0000000       0.0000000        1     0     0
     3       C          1.35018600  *  119.9931430  *    0.0000000        2     1     0
     4       C          1.34942500  *  117.6027580  *    0.0093830  *     3     2     1
     5       C          1.34669200  *  122.8070550  *   -0.0092390  *     4     3     2
     6       C          1.33978600  *  121.5397910  *   -0.0045240  *     1     2     3
     7       O          1.36206300  *  120.2656910  * -179.9993450  *     2     1     6
     8       O          1.37550300  *  117.3469080  *  179.9963140  *     3     2     1
     9       C          1.36152800  *  120.6703310  * -179.9969840  *     5     4     3
    10       O          1.21167200  *  125.9068760  * -179.9996430  *     9     5     4
    11       C          1.40816300  *  119.4141810  * -179.9226460  *     8     3     2
    12       H          1.10334100  *  119.0921480  *  179.9964590  *     1     2     3
    13       H          1.10114000  *  119.0005520  *  179.9930460  *     4     3     2
    14       H          1.10254600  *  118.2353080  * -179.9992070  *     6     1     2
    15       H          0.97103800  *  109.1197870  *  179.9697450  *     7     2     1
    16       H          1.11607300  *  115.4005010  *    0.0002400  *     9     5     4
    17       H          1.11312000  *  107.7243830  *  179.9704230  *    11     8     3
    18       H          1.11280200  *  110.3515220  *  -62.2028600  *    11     8     3
    19       H          1.11280500  *  110.3515910  *   62.1413360  *    11     8     3
 


          CARTESIAN COORDINATES 

    NO.       ATOM           X           Y           Z

     1         C          0.0000      0.0000      0.0000
     2         C          1.3428      0.0000      0.0000
     3         C          2.0178      1.1694      0.0000
     4         C          1.2946      2.3087      0.0002
     5         C         -0.0520      2.3182      0.0002
     6         C         -0.7008      1.1419      0.0001
     7         O          2.0293     -1.1764     -0.0001
     8         O          3.3918      1.1059      0.0001
     9         C         -0.7383      3.4941      0.0003
    10         O         -1.9441      3.6132      0.0004
    11         C          4.1393      2.2993      0.0017
    12         H         -0.5365     -0.9641     -0.0001
    13         H          1.8217      3.2755      0.0003
    14         H         -1.8015      1.0783      0.0001
    15         H          2.9820     -0.9887     -0.0006
    16         H         -0.1088      4.4157      0.0004
    17         H          5.2177      2.0237      0.0020
    18         H          3.9325      2.8867     -0.9205
    19         H          3.9314      2.8848      0.9249

 General Reference for PM7:
 "Optimization of Parameters for Semiempirical Methods VI: More Modifications to the 
 NDDO Approximations and Re-optimization of Parameters", J. J. P. Stewart, J. Mol. Mod., 1:32, 19 (2013)
 http://www.springerlink.com/openurl.asp?genre=article&id=doi:10.1007/s00894-012-1667-x

           Empirical Formula: C8 H8 O3  =    19 atoms



      MOLECULAR POINT GROUP   :   Cs  


      RHF CALCULATION, NO. OF DOUBLY OCCUPIED LEVELS = 29


          Geometry optimization using EF
  SCF CRITERION =    0.1000E-05

          DIAGONAL MATRIX USED AS START HESSIAN

 CYCLE:     1 TIME:   0.051 TIME LEFT:  2.00D  GRAD.:   537.777 HEAT: -62.62350
 CYCLE:     2 TIME:   0.062 TIME LEFT:  2.00D  GRAD.:   402.419 HEAT: -67.39756
 CYCLE:     3 TIME:   0.016 TIME LEFT:  2.00D  GRAD.:   186.484 HEAT: -79.48691
 CYCLE:     4 TIME:   0.031 TIME LEFT:  2.00D  GRAD.:    74.845 HEAT: -86.71535
 CYCLE:     5 TIME:   0.031 TIME LEFT:  2.00D  GRAD.:    67.498 HEAT: -87.54508
 CYCLE:     6 TIME:   0.031 TIME LEFT:  2.00D  GRAD.:    56.008 HEAT: -88.04304
 CYCLE:     7 TIME:   0.031 TIME LEFT:  2.00D  GRAD.:    67.594 HEAT: -88.28167
 CYCLE:     8 TIME:   0.016 TIME LEFT:  2.00D  GRAD.:    27.244 HEAT: -88.39162
 CYCLE:     9 TIME:   0.031 TIME LEFT:  2.00D  GRAD.:    56.660 HEAT: -88.39565
 CYCLE:    10 TIME:   0.016 TIME LEFT:  2.00D  GRAD.:     4.410 HEAT: -88.58856
 CYCLE:    11 TIME:   0.016 TIME LEFT:  2.00D  GRAD.:     1.993 HEAT: -88.60264
 CYCLE:    12 TIME:   0.031 TIME LEFT:  2.00D  GRAD.:     1.466 HEAT: -88.61249
 CYCLE:    13 TIME:   0.000 TIME LEFT:  2.00D  GRAD.:     2.013 HEAT: -88.61459
 CYCLE:    14 TIME:   0.016 TIME LEFT:  2.00D  GRAD.:     0.632 HEAT: -88.61580

     GRADIENT =  0.63238 IS LESS THAN CUTOFF =  1.00000



 -------------------------------------------------------------------------------
 STATIC RELSCF=0.01
 Vanillin.mop



     GEOMETRY OPTIMISED USING EIGENVECTOR FOLLOWING (EF).     
     SCF FIELD WAS ACHIEVED                                   


                              PM7 CALCULATION
                                                       MOPAC2016 (Version: 19.179W)
                                                       Tue Oct 29 11:34:05 2019
                                                       No. of days remaining = 242




          FINAL HEAT OF FORMATION =        -88.61580 KCAL/MOL =    -370.76850 KJ/MOL


          TOTAL ENERGY            =      -1975.71097 EV
          ELECTRONIC ENERGY       =      -9377.04888 EV  POINT GROUP:     Cs  
          CORE-CORE REPULSION     =       7401.33791 EV
          COSMO AREA              =        179.88 SQUARE ANGSTROMS
          COSMO VOLUME            =        177.63 CUBIC ANGSTROMS

          GRADIENT NORM           =          0.63238 = 0.14508 PER ATOM
          IONIZATION POTENTIAL    =          9.101527 EV
          HOMO LUMO ENERGIES (EV) =         -9.102 -0.673
          NO. OF FILLED LEVELS    =         29
          MOLECULAR WEIGHT        =        152.1494

          MOLECULAR DIMENSIONS (Angstroms)

            Atom       Atom       Distance
            H    17    O    10     7.45392
            H    16    H    12     5.49015
            H    18    H    19     1.81129


          SCF CALCULATIONS        =         17
 
          WALL-CLOCK TIME         =          0.395 SECONDS
          COMPUTATION TIME        =          0.562 SECONDS




  ATOM    CHEMICAL      BOND LENGTH      BOND ANGLE     TWIST ANGLE 
 NUMBER    SYMBOL       (ANGSTROMS)      (DEGREES)       (DEGREES) 
   (I)                     NA:I           NB:NA:I       NC:NB:NA:I       NA    NB    NC 
     1       C          0.00000000       0.0000000       0.0000000        0     0     0
     2       C          1.39066114  *    0.0000000       0.0000000        1     0     0
     3       C          1.41759094  *  120.7108590  *    0.0000000        2     1     0
     4       C          1.38318894  *  120.0756188  *    0.1123707  *     3     2     1
     5       C          1.40335997  *  118.9299465  *   -0.0540176  *     4     3     2
     6       C          1.39513621  *  118.8869513  *   -0.0597662  *     1     2     3
     7       O          1.35257457  *  116.6074580  *  179.8250330  *     2     1     6
     8       O          1.36509274  *  113.0437450  * -179.5316857  *     3     2     1
     9       C          1.47648500  *  119.5396235  *  179.9856330  *     5     4     3
    10       O          1.20887128  *  122.0517449  * -179.9906195  *     9     5     4
    11       C          1.42027504  *  116.7207134  * -178.3460681  *     8     3     2
    12       H          1.08908003  *  119.7675312  *  179.9805428  *     1     2     3
    13       H          1.08695124  *  121.1968688  *  179.9759685  *     4     3     2
    14       H          1.09488823  *  120.0969992  *  179.9940082  *     6     1     2
    15       H          0.99347960  *  111.7114676  * -179.4999483  *     7     2     1
    16       H          1.09833250  *  117.7448238  *    0.0083532  *     9     5     4
    17       H          1.09936967  *  101.9840337  *  179.8875257  *    11     8     3
    18       H          1.09465553  *  110.8812731  *  -62.5107159  *    11     8     3
    19       H          1.09463041  *  110.8745435  *   62.2095363  *    11     8     3

                             CARTESIAN COORDINATES

   1    C        0.000000000     0.000000000     0.000000000
   2    C        1.390661144     0.000000000     0.000000000
   3    C        2.114633164     1.218781604     0.000000000
   4    C        1.439548119     2.426037299     0.002347528
   5    C        0.036205848     2.419091881     0.003548904
   6    C       -0.673966573     1.221545120     0.001274215
   7    O        1.996446117    -1.209328992     0.002431520
   8    O        3.467485819     1.036675952    -0.010267326
   9    C       -0.698085086     3.700035592     0.006377367
  10    O       -1.906041370     3.747043195     0.007669964
  11    C        4.269829530     2.208059433     0.025600377
  12    H       -0.540708771    -0.945372532    -0.000321042
  13    H        1.976268055     3.371232794     0.002779215
  14    H       -1.768610637     1.244666788     0.001199271
  15    H        2.986269348    -1.124538010     0.010316483
  16    H       -0.109050460     4.627058574     0.007313930
  17    H        5.286152226     1.789154615     0.010747996
  18    H        4.097828212     2.826104381    -0.861364509
  19    H        4.099567025     2.769297556     0.949850439


           Empirical Formula: C8 H8 O3  =    19 atoms



      MOLECULAR POINT GROUP   :   Cs  


                  EIGENVALUES  
 -31.54906 -31.07537 -30.56695 -30.28706 -26.65721 -26.10674 -25.08381 -22.91144
 -21.51604 -20.28843 -18.95126 -17.55049 -16.85247 -16.43806 -16.39322 -15.35035
 -14.99005 -14.87717 -14.52453 -14.18902 -14.10841 -13.57089 -12.83221 -12.76641
 -12.38945 -12.01706 -10.24342 -10.03955  -9.10153  -0.67265  -0.14323   1.06512
   1.12741   2.24740   2.37954   3.22429   3.45732   3.99174   4.20075   4.33109
   4.46632   4.68097   4.91443   4.95405   5.03854   5.25212   5.29328   5.40233
   5.52591   5.61214   5.96477   6.04101


              NET ATOMIC CHARGES AND DIPOLE CONTRIBUTIONS

  ATOM NO.   TYPE          CHARGE      No. of ELECS.   s-Pop       p-Pop       
    1          C          -0.235161        4.2352     1.07698     3.15819
    2          C           0.244677        3.7553     1.07929     2.67603
    3          C           0.082856        3.9171     1.07707     2.84007
    4          C          -0.185900        4.1859     1.07849     3.10741
    5          C          -0.189613        4.1896     1.07056     3.11906
    6          C          -0.056457        4.0565     1.08865     2.96781
    7          O          -0.443559        6.4436     1.83992     4.60364
    8          O          -0.342324        6.3423     1.86438     4.47795
    9          C           0.345821        3.6542     1.13344     2.52073
   10          O          -0.434883        6.4349     1.87939     4.55549
   11          C          -0.184610        4.1846     1.08738     3.09723
   12          H           0.184529        0.8155     0.81547
   13          H           0.161788        0.8382     0.83821
   14          H           0.178894        0.8211     0.82111
   15          H           0.341024        0.6590     0.65898
   16          H           0.107700        0.8923     0.89230
   17          H           0.153367        0.8466     0.84663
   18          H           0.135844        0.8642     0.86416
   19          H           0.136008        0.8640     0.86399
 DIPOLE           X         Y         Z       TOTAL
 POINT-CHG.     4.039     1.391     0.068     4.273
 HYBRID         0.668    -0.460    -0.007     0.812
 SUM            4.707     0.931     0.061     4.799


          ATOMIC ORBITAL ELECTRON POPULATIONS

     Atom    s        px        py        pz   
    1  C   1.07698   0.99076   1.07818   1.08924
    2  C   1.07929   0.93581   0.80949   0.93073
    3  C   1.07707   0.81311   0.98172   1.04525
    4  C   1.07849   1.01252   1.05122   1.04367
    5  C   1.07056   0.98216   1.02629   1.11061
    6  C   1.08865   1.09070   0.95825   0.91886
    7  O   1.83992   1.36768   1.34268   1.89328
    8  O   1.86438   1.21889   1.35297   1.90609
    9  C   1.13344   0.86767   0.97038   0.68269
   10  O   1.87939   1.26525   1.92151   1.36873
   11  C   1.08738   1.00905   0.94389   1.14428
   12  H   0.81547
   13  H   0.83821
   14  H   0.82111
   15  H   0.65898
   16  H   0.89230
   17  H   0.84663
   18  H   0.86416
   19  H   0.86399
 ******************** FINITE-FIELD POLARIZABILITIES ********************

    THE F-F METHOD IS PERFORMED USING BOTH AN ENERGY
    AND DIPOLE MOMENT EXPANSION.  THESE RESULTS ARE
    LISTED BELOW AS "H.o.F." AND "Dipole", RESPECTIVELY.

          MOLECULAR WEIGHT =  152.15



          ROTATIONAL CONSTANTS IN CM(-1)

          A =    0.06271997   B =    0.02607263   C =    0.01848399



           PRINCIPAL MOMENTS OF INERTIA IN UNITS OF 10**(-40)*GRAM-CM**2

          A =      446.3136   B =     1073.6461   C =     1514.4339


 ROTATION MATRIX FOR ORIENTATION OF MOLECULE:

         0.849812    0.527083   -0.001559
        -0.527086    0.849808   -0.002748
        -0.000123    0.003157    0.999995


          CARTESIAN COORDINATES 

    NO.       ATOM         X         Y         Z

     1         C       -0.1388   -1.8675    0.0020
     2         C        1.0430   -1.1345   -0.0002
     3         C        1.0158    0.2828   -0.0046
     4         C       -0.1942    0.9530   -0.0046
     5         C       -1.3831    0.2074   -0.0011
     6         C       -1.3554   -1.1846    0.0010
     7         O        2.1952   -1.8429    0.0046
     8         O        2.2615    0.8411   -0.0165
     9         C       -2.6823    0.9089   -0.0007
    10         O       -3.7336    0.3122    0.0024
    11         C        2.3259    2.2596    0.0149
    12         H       -0.1000   -2.9559    0.0051
    13         H       -0.2363    2.0391   -0.0076
    14         H       -2.2978   -1.7419    0.0025
    15         H        2.9917   -1.2491    0.0108
    16         H       -2.6703    2.0072   -0.0032
    17         H        3.4104    2.4392   -0.0004
    18         H        1.8541    2.6914   -0.8735
    19         H        1.8853    2.6497    0.9378
  SCF CRITERION =    0.1000E-05


 ENERGY OF "REORIENTED" SYSTEM WITHOUT FIELD:      -88.61580 Kcal/mol


 APPLIED ELECTRIC FIELD MAGNITUDE:         0.10284 VOLTS PER ANGSTROM
    Step  1 of 36 done (+X)
    Step  2 of 36 done (-X)
    Step  3 of 36 done (+2X)
    Step  4 of 36 done (-2X)
    Step  5 of 36 done (+Y)
    Step  6 of 36 done (-Y)
    Step  7 of 36 done (+2Y)
    Step  8 of 36 done (-2Y)
    Step  9 of 36 done (+Y+X)
    Step 10 of 36 done (+Y-X)
    Step 11 of 36 done (-Y-X)
    Step 12 of 36 done (-Y+X)
    Step 13 of 36 done (+2Y+2X)
    Step 14 of 36 done (+2Y-2X)
    Step 15 of 36 done (-2Y-2X)
    Step 16 of 36 done (-2Y+2X)
    Step 17 of 36 done (+Z)
    Step 18 of 36 done (-Z)
    Step 19 of 36 done (+2Z)
    Step 20 of 36 done (-2Z)
    Step 21 of 36 done (+Z+X)
    Step 22 of 36 done (+Z-X)
    Step 23 of 36 done (-Z-X)
    Step 24 of 36 done (-Z+X)
    Step 25 of 36 done (+2Z+2X)
    Step 26 of 36 done (+2Z-2X)
    Step 27 of 36 done (-2Z-2X)
    Step 28 of 36 done (-2Z+2X)
    Step 29 of 36 done (+Z+Y)
    Step 30 of 36 done (+Z-Y)
    Step 31 of 36 done (-Z-Y)
    Step 32 of 36 done (-Z+Y)
    Step 33 of 36 done (+2Z+2Y)
    Step 34 of 36 done (+2Z-2Y)
    Step 35 of 36 done (-2Z-2Y)
    Step 36 of 36 done (-2Z+2Y)


 ****************************** DIPOLE ******************************


                     H.o.F.         Dipole

     X             -1.380807      -1.380723
     Y             -1.287564      -1.287492
     X             -0.020235      -0.020263


 MAGNITUDE:         1.888083       1.887973  (A.U.)
                    4.799029       4.798749  (DEBYE)


 ****************************** POLARIZABILITY ********************



 Polarizability Tensor from Heat of Formation:


                     1          2          3
 ------------------------------------------
          1 132.699660
          2   0.883490 113.889075
          3  -0.062935  -0.054310  79.932709




    ROOT NO.    1           2           3

            79.93255   113.84775   132.74115
  
         1   0.00117    -0.04682    -0.99890
         2   0.00157     0.99890    -0.04682
         3   1.00000    -0.00151     0.00124

 Polarizability Tensor from Dipole Moment:


                     1          2          3
 ------------------------------------------
          1 132.712514
          2   0.858642 113.914719
          3  -0.141546  -0.033957  79.924775




    ROOT NO.    1           2           3

            79.92437   113.87560   132.75204
  
         1   0.00267    -0.04554    -0.99896
         2   0.00093     0.99896    -0.04554
         3   1.00000    -0.00081     0.00271


 Average Polarizability from:     H.o.F         Dipole
                              108.840481     108.850669  A.U.
                               16.127983      16.129492  ANG.**3
                            3.225509D-23   3.225811D-23  ESU

 **********************
 *                    *
 * JOB ENDED NORMALLY *
 *                    *
 **********************



 TOTAL JOB TIME:             0.52 SECONDS

 == MOPAC DONE ==
